
     Program PWSCF v.6.6 starts on 12Oct2021 at  1:41:46 

     This program is part of the open-source Quantum ESPRESSO suite
     for quantum simulation of materials; please cite
         "P. Giannozzi et al., J. Phys.:Condens. Matter 21 395502 (2009);
         "P. Giannozzi et al., J. Phys.:Condens. Matter 29 465901 (2017);
          URL http://www.quantum-espresso.org", 
     in publications or presentations arising from this work. More details at
     http://www.quantum-espresso.org/quote

     Parallel version (MPI & OpenMP), running on     128 processor cores
     Number of MPI processes:                32
     Threads/MPI process:                     4

     MPI processes distributed on     1 nodes
     R & G space division:  proc/nbgrp/npool/nimage =      32
     Fft bands division:     nmany     =       1
     Waiting for input...
     Reading input from standard input
Warning: card &CELL ignored
Warning: card / ignored

     Current dimensions of program PWSCF are:
     Max number of different atomic species (ntypx) = 10
     Max number of k-points (npk) =  40000
     Max angular momentum in pseudopotentials (lmaxx) =  3
     file Si.pbe-n-kjpaw_psl.1.0.0.UPF: wavefunction(s)  3S 3P renormalized
     file H.pbe-kjpaw_psl.1.0.0.UPF: wavefunction(s)  1S renormalized

     Subspace diagonalization in iterative solution of the eigenvalue problem:
     a serial algorithm will be used

     Message from routine setup:
     using ibrav=0 with symmetry is DISCOURAGED, use correct ibrav instead
 
     Parallelization info
     --------------------
     sticks:   dense  smooth     PW     G-vecs:    dense   smooth      PW
     Min          21      21      6                 1273     1273     194
     Max          22      22      7                 1285     1285     202
     Sum         681     681    193                40959    40959    6325
 


     bravais-lattice index     =            0
     lattice parameter (alat)  =      14.5118  a.u.
     unit-cell volume          =    3387.4766 (a.u.)^3
     number of atoms/cell      =           14
     number of atomic types    =            2
     number of electrons       =        44.00
     number of Kohn-Sham states=           22
     kinetic-energy cutoff     =      20.0000  Ry
     charge density cutoff     =      80.0000  Ry
     convergence threshold     =      1.0E-06
     mixing beta               =       0.7000
     number of iterations used =            8  plain     mixing
     Exchange-correlation= SLA PW PBX PBC
                           (   1   4   3   4   0   0   0)
     nstep                     =           50


     celldm(1)=  14.511812  celldm(2)=   0.000000  celldm(3)=   0.000000
     celldm(4)=   0.000000  celldm(5)=   0.000000  celldm(6)=   0.000000

     crystal axes: (cart. coord. in units of alat)
               a(1) = (   1.000000   0.000000   0.000000 )  
               a(2) = (   0.000000   0.500000   0.000000 )  
               a(3) = (   0.000000   0.000000   2.216876 )  

     reciprocal axes: (cart. coord. in units 2 pi/alat)
               b(1) = (  1.000000  0.000000  0.000000 )  
               b(2) = (  0.000000  2.000000  0.000000 )  
               b(3) = (  0.000000  0.000000  0.451085 )  


     PseudoPot. # 1 for Si read from file:
     ./Si.pbe-n-kjpaw_psl.1.0.0.UPF
     MD5 check sum: c39c59da582df4a0d9f10159256ea34e
     Pseudo is Projector augmented-wave + core cor, Zval =  4.0
     Generated using "atomic" code by A. Dal Corso v.6.3
     Shape of augmentation charge: PSQ
     Using radial grid of 1141 points,  6 beta functions with: 
                l(1) =   0
                l(2) =   0
                l(3) =   1
                l(4) =   1
                l(5) =   2
                l(6) =   2
     Q(r) pseudized with 0 coefficients 


     PseudoPot. # 2 for H  read from file:
     ./H.pbe-kjpaw_psl.1.0.0.UPF
     MD5 check sum: d81a744832360e4a8af0b0b5b123bc2a
     Pseudo is Projector augmented-wave, Zval =  1.0
     Generated using "atomic" code by A. Dal Corso v.6.3MaX
     Shape of augmentation charge: PSQ
     Using radial grid of  929 points,  2 beta functions with: 
                l(1) =   0
                l(2) =   0
     Q(r) pseudized with 0 coefficients 


     atomic species   valence    mass     pseudopotential
        Si             4.00    28.08500     Si( 1.00)
        H              1.00     1.00800     H ( 1.00)

      2 Sym. Ops. (no inversion) found



   Cartesian axes

     site n.     atom                  positions (alat units)
         1           Si  tau(   1) = (   0.1588000   0.0000000   1.2064779  )
         2           Si  tau(   2) = (   0.8412000   0.0000000   1.3006165  )
         3           Si  tau(   3) = (   0.2344501   0.2500000   1.0944524  )
         4           Si  tau(   4) = (   0.7655499   0.2500000   1.0944524  )
         5           Si  tau(   5) = (   0.5000000   0.2500000   0.9318195  )
         6           Si  tau(   6) = (   0.0000000   0.2500000   0.8985744  )
         7           Si  tau(   7) = (   0.5000000   0.0000000   0.7479712  )
         8           Si  tau(   8) = (   0.0000000   0.0000000   0.7288679  )
         9           Si  tau(   9) = (   0.2500000   0.0000000   0.5627126  )
        10           Si  tau(  10) = (   0.7500000   0.0000000   0.5627126  )
        11           H   tau(  11) = (   0.2500000  -0.1573876   0.4514820  )
        12           H   tau(  12) = (   0.2500000   0.1573876   0.4514820  )
        13           H   tau(  13) = (   0.7500000  -0.1573876   0.4514820  )
        14           H   tau(  14) = (   0.7500000   0.1573876   0.4514820  )

     number of k points=     4
                       cart. coord. in units 2pi/alat
        k(    1) = (   0.0000000   0.0000000   0.0000000), wk =   0.2222222
        k(    2) = (   0.0000000   0.6666667   0.0000000), wk =   0.4444444
        k(    3) = (   0.3333333   0.0000000   0.0000000), wk =   0.4444444
        k(    4) = (   0.3333333   0.6666667   0.0000000), wk =   0.8888889

     Dense  grid:    40959 G-vectors     FFT dimensions: (  45,  24,  96)

     Estimated max dynamical RAM per process >       7.20 MB

     Estimated total dynamical RAM >     230.49 MB

     Check: negative core charge=   -0.000006

     Initial potential from superposition of free atoms

     starting charge   43.99437, renormalised to   44.00000

     negative rho (up, down):  6.560E-03 0.000E+00
     Starting wfcs are   44 randomized atomic wfcs
     Checking if some PAW data can be deallocated... 

     total cpu time spent up to now is        1.8 secs

     Self-consistent Calculation

     iteration #  1     ecut=    20.00 Ry     beta= 0.70
     Davidson diagonalization with overlap
     ethr =  1.00E-02,  avg # of iterations =  2.0

     negative rho (up, down):  1.187E-02 0.000E+00

     total cpu time spent up to now is        1.9 secs

     total energy              =    -471.42460758 Ry
     estimated scf accuracy    <       0.57923232 Ry

     iteration #  2     ecut=    20.00 Ry     beta= 0.70
     Davidson diagonalization with overlap
     ethr =  1.32E-03,  avg # of iterations = 10.0

     negative rho (up, down):  1.211E-02 0.000E+00

     total cpu time spent up to now is        2.2 secs

     total energy              =    -471.22698519 Ry
     estimated scf accuracy    <       1.13772562 Ry

     iteration #  3     ecut=    20.00 Ry     beta= 0.70
     Davidson diagonalization with overlap
     ethr =  1.32E-03,  avg # of iterations =  7.5

     negative rho (up, down):  1.262E-02 0.000E+00

     total cpu time spent up to now is        2.4 secs

     total energy              =    -471.48368811 Ry
     estimated scf accuracy    <       0.20186392 Ry

     iteration #  4     ecut=    20.00 Ry     beta= 0.70
     Davidson diagonalization with overlap
     ethr =  4.59E-04,  avg # of iterations =  5.8

     negative rho (up, down):  1.299E-02 0.000E+00

     total cpu time spent up to now is        2.5 secs

     total energy              =    -471.51582208 Ry
     estimated scf accuracy    <       0.11542521 Ry

     iteration #  5     ecut=    20.00 Ry     beta= 0.70
     Davidson diagonalization with overlap
     ethr =  2.62E-04,  avg # of iterations =  3.2

     negative rho (up, down):  1.313E-02 0.000E+00

     total cpu time spent up to now is        2.6 secs

     total energy              =    -471.51932999 Ry
     estimated scf accuracy    <       0.04581219 Ry

     iteration #  6     ecut=    20.00 Ry     beta= 0.70
     Davidson diagonalization with overlap
     ethr =  1.04E-04,  avg # of iterations =  7.2

     negative rho (up, down):  1.314E-02 0.000E+00

     total cpu time spent up to now is        2.8 secs

     total energy              =    -471.52674193 Ry
     estimated scf accuracy    <       0.04208683 Ry

     iteration #  7     ecut=    20.00 Ry     beta= 0.70
     Davidson diagonalization with overlap
     ethr =  9.57E-05,  avg # of iterations =  1.0

     negative rho (up, down):  1.315E-02 0.000E+00

     total cpu time spent up to now is        2.9 secs

     total energy              =    -471.52099832 Ry
     estimated scf accuracy    <       0.03368492 Ry

     iteration #  8     ecut=    20.00 Ry     beta= 0.70
     Davidson diagonalization with overlap
     ethr =  7.66E-05,  avg # of iterations =  8.0

     negative rho (up, down):  1.314E-02 0.000E+00

     total cpu time spent up to now is        3.0 secs

     total energy              =    -471.52628121 Ry
     estimated scf accuracy    <       0.00589532 Ry

     iteration #  9     ecut=    20.00 Ry     beta= 0.70
     Davidson diagonalization with overlap
     ethr =  1.34E-05,  avg # of iterations =  4.0

     negative rho (up, down):  1.309E-02 0.000E+00

     total cpu time spent up to now is        3.1 secs

     total energy              =    -471.52566808 Ry
     estimated scf accuracy    <       0.00413647 Ry

     iteration # 10     ecut=    20.00 Ry     beta= 0.70
     Davidson diagonalization with overlap
     ethr =  9.40E-06,  avg # of iterations =  6.8

     negative rho (up, down):  1.310E-02 0.000E+00

     total cpu time spent up to now is        3.2 secs

     total energy              =    -471.52630098 Ry
     estimated scf accuracy    <       0.00096918 Ry

     iteration # 11     ecut=    20.00 Ry     beta= 0.70
     Davidson diagonalization with overlap
     ethr =  2.20E-06,  avg # of iterations =  5.2

     negative rho (up, down):  1.313E-02 0.000E+00

     total cpu time spent up to now is        3.4 secs

     total energy              =    -471.52630669 Ry
     estimated scf accuracy    <       0.00080821 Ry

     iteration # 12     ecut=    20.00 Ry     beta= 0.70
     Davidson diagonalization with overlap
     ethr =  1.84E-06,  avg # of iterations =  4.2

     negative rho (up, down):  1.314E-02 0.000E+00

     total cpu time spent up to now is        3.5 secs

     total energy              =    -471.52634973 Ry
     estimated scf accuracy    <       0.00012724 Ry

     iteration # 13     ecut=    20.00 Ry     beta= 0.70
     Davidson diagonalization with overlap
     ethr =  2.89E-07,  avg # of iterations =  9.5

     negative rho (up, down):  1.314E-02 0.000E+00

     total cpu time spent up to now is        3.6 secs

     total energy              =    -471.52639421 Ry
     estimated scf accuracy    <       0.00004125 Ry

     iteration # 14     ecut=    20.00 Ry     beta= 0.70
     Davidson diagonalization with overlap
     ethr =  9.37E-08,  avg # of iterations =  2.0

     negative rho (up, down):  1.314E-02 0.000E+00

     total cpu time spent up to now is        3.8 secs

     total energy              =    -471.52639195 Ry
     estimated scf accuracy    <       0.00002738 Ry

     iteration # 15     ecut=    20.00 Ry     beta= 0.70
     Davidson diagonalization with overlap
     ethr =  6.22E-08,  avg # of iterations =  3.8

     negative rho (up, down):  1.314E-02 0.000E+00

     total cpu time spent up to now is        3.9 secs

     total energy              =    -471.52639005 Ry
     estimated scf accuracy    <       0.00001114 Ry

     iteration # 16     ecut=    20.00 Ry     beta= 0.70
     Davidson diagonalization with overlap
     ethr =  2.53E-08,  avg # of iterations = 11.0

     negative rho (up, down):  1.314E-02 0.000E+00

     total cpu time spent up to now is        4.0 secs

     total energy              =    -471.52639423 Ry
     estimated scf accuracy    <       0.00001380 Ry

     iteration # 17     ecut=    20.00 Ry     beta= 0.70
     Davidson diagonalization with overlap
     ethr =  2.53E-08,  avg # of iterations =  1.8

     negative rho (up, down):  1.314E-02 0.000E+00

     total cpu time spent up to now is        4.1 secs

     total energy              =    -471.52639438 Ry
     estimated scf accuracy    <       0.00000771 Ry

     iteration # 18     ecut=    20.00 Ry     beta= 0.70
     Davidson diagonalization with overlap
     ethr =  1.75E-08,  avg # of iterations =  1.0

     negative rho (up, down):  1.314E-02 0.000E+00

     total cpu time spent up to now is        4.2 secs

     total energy              =    -471.52639408 Ry
     estimated scf accuracy    <       0.00000683 Ry

     iteration # 19     ecut=    20.00 Ry     beta= 0.70
     Davidson diagonalization with overlap
     ethr =  1.55E-08,  avg # of iterations =  1.5

     negative rho (up, down):  1.314E-02 0.000E+00

     total cpu time spent up to now is        4.3 secs

     total energy              =    -471.52639365 Ry
     estimated scf accuracy    <       0.00000518 Ry

     iteration # 20     ecut=    20.00 Ry     beta= 0.70
     Davidson diagonalization with overlap
     ethr =  1.18E-08,  avg # of iterations =  8.8

     negative rho (up, down):  1.314E-02 0.000E+00

     total cpu time spent up to now is        4.5 secs

     End of self-consistent calculation

          k = 0.0000 0.0000 0.0000 (  5135 PWs)   bands (ev):

   -11.9178 -10.7965  -9.8706  -9.4304  -9.1865  -8.4770  -6.5151  -6.0758
    -5.4034  -3.8995  -3.7139  -3.2920  -2.9765  -2.5924  -2.4067  -2.0200
    -1.3591  -1.3432  -1.2076  -1.1186  -0.4922   0.0898

          k = 0.0000 0.6667 0.0000 (  5130 PWs)   bands (ev):

   -10.9771 -10.0167  -8.9334  -8.6142  -8.4833  -7.9000  -7.0990  -6.7148
    -6.1614  -5.5108  -5.3549  -4.5380  -3.9556  -3.7548  -3.3761  -2.9387
    -2.4697  -1.8367  -1.8032  -1.6150  -1.0228  -0.7610

          k = 0.3333 0.0000 0.0000 (  5096 PWs)   bands (ev):

   -11.7834 -10.8458 -10.3876  -9.4918  -8.7869  -8.3143  -6.2487  -5.9506
    -5.2714  -4.3830  -3.5864  -3.2468  -2.9483  -2.8002  -2.5231  -2.2748
    -2.2239  -1.4216  -1.3452  -1.1091  -0.3627   0.1423

          k = 0.3333 0.6667 0.0000 (  5128 PWs)   bands (ev):

   -10.8283  -9.9879  -9.5739  -8.8273  -8.1557  -7.5484  -7.1038  -6.5529
    -6.0781  -5.4413  -5.0649  -4.5713  -4.0015  -3.6655  -3.4249  -3.1483
    -2.5626  -2.3161  -2.0610  -1.8262  -1.5286  -0.6905

     highest occupied level (ev):     0.1423

!    total energy              =    -471.52639416 Ry

     total all-electron energy =     -5804.985027 Ry
     estimated scf accuracy    <       0.00000042 Ry

     The total energy is the sum of the following terms:
     one-electron contribution =    -373.53087127 Ry
     hartree contribution      =     198.38536377 Ry
     xc contribution           =     -64.08421413 Ry
     ewald contribution        =     123.63855910 Ry
     one-center paw contrib.   =    -355.93523162 Ry

     convergence has been achieved in  20 iterations

     negative rho (up, down):  1.314E-02 0.000E+00

     Forces acting on atoms (cartesian axes, Ry/au):

     atom    1 type  1   force =    -0.12478649    0.00000000    0.05406238
     atom    2 type  1   force =     0.01844648    0.00000000   -0.07127512
     atom    3 type  1   force =     0.07970014    0.00000000   -0.04703636
     atom    4 type  1   force =     0.03083072    0.00000000    0.06571924
     atom    5 type  1   force =     0.00578741    0.00000000   -0.00135747
     atom    6 type  1   force =    -0.02301208    0.00000000    0.00987794
     atom    7 type  1   force =     0.00062944    0.00000000   -0.00172214
     atom    8 type  1   force =     0.01245255    0.00000000    0.00078433
     atom    9 type  1   force =     0.01148603    0.00000000    0.01088230
     atom   10 type  1   force =    -0.01532162    0.00000000    0.01311483
     atom   11 type  2   force =     0.00470119    0.01306966   -0.00852635
     atom   12 type  2   force =     0.00470119   -0.01306966   -0.00852635
     atom   13 type  2   force =    -0.00280748    0.01334551   -0.00799861
     atom   14 type  2   force =    -0.00280748   -0.01334551   -0.00799861

     Total force =     0.196394     Total SCF correction =     0.000839

     BFGS Geometry Optimization

     number of scf cycles    =   1
     number of bfgs steps    =   0

     energy   new            =    -471.5263941562 Ry

     new trust radius        =       0.1359941535 bohr
     new conv_thr            =       0.0000010000 Ry


ATOMIC_POSITIONS (angstrom)
Si            1.1534418325        0.0000000000        9.2935385815
Si            6.4696054576        0.0000000000        9.9501328308
Si            1.8425924955        1.9198300000        8.3797594295
Si            5.8952179118        1.9198300000        8.4394271232
Si            3.8427225645        1.9198300000        7.1550216558
Si           -0.0121774686        1.9198300000        6.9056671793
Si            3.8399930827        0.0000000000        5.7429986809
Si            0.0065896082        0.0000000000        5.5976250491
Si            1.9198300000        0.0000000000        4.3212500000    0   0   0
Si            5.7594900000        0.0000000000        4.3212500000    0   0   0
H             1.9198300000       -1.2086295000        3.4670751200    0   0   0
H             1.9198300000        1.2086295000        3.4670751200    0   0   0
H             5.7594900000       -1.2086295000        3.4670751200    0   0   0
H             5.7594900000        1.2086295000        3.4670751200    0   0   0



     Writing output data file ./pwscf.save/
     NEW-OLD atomic charge density approx. for the potential

     Check: negative core charge=   -0.000006

     negative rho (up, down):  1.316E-02 0.000E+00

     total cpu time spent up to now is        4.6 secs

     Self-consistent Calculation

     iteration #  1     ecut=    20.00 Ry     beta= 0.70
     Davidson diagonalization with overlap
     ethr =  1.00E-06,  avg # of iterations = 14.8

     negative rho (up, down):  1.315E-02 0.000E+00

     total cpu time spent up to now is        4.9 secs

     total energy              =    -471.55814061 Ry
     estimated scf accuracy    <       0.00179063 Ry

     iteration #  2     ecut=    20.00 Ry     beta= 0.70
     Davidson diagonalization with overlap
     ethr =  4.07E-06,  avg # of iterations = 10.8

     negative rho (up, down):  1.315E-02 0.000E+00

     total cpu time spent up to now is        5.1 secs

     total energy              =    -471.55740375 Ry
     estimated scf accuracy    <       0.00754061 Ry

     iteration #  3     ecut=    20.00 Ry     beta= 0.70
     Davidson diagonalization with overlap
     ethr =  4.07E-06,  avg # of iterations = 10.5

     negative rho (up, down):  1.315E-02 0.000E+00

     total cpu time spent up to now is        5.2 secs

     total energy              =    -471.55848036 Ry
     estimated scf accuracy    <       0.00200052 Ry

     iteration #  4     ecut=    20.00 Ry     beta= 0.70
     Davidson diagonalization with overlap
     ethr =  4.07E-06,  avg # of iterations =  6.5

     negative rho (up, down):  1.315E-02 0.000E+00

     total cpu time spent up to now is        5.3 secs

     total energy              =    -471.55874951 Ry
     estimated scf accuracy    <       0.00012670 Ry

     iteration #  5     ecut=    20.00 Ry     beta= 0.70
     Davidson diagonalization with overlap
     ethr =  2.88E-07,  avg # of iterations =  6.5

     negative rho (up, down):  1.315E-02 0.000E+00

     total cpu time spent up to now is        5.5 secs

     total energy              =    -471.55878215 Ry
     estimated scf accuracy    <       0.00004057 Ry

     iteration #  6     ecut=    20.00 Ry     beta= 0.70
     Davidson diagonalization with overlap
     ethr =  9.22E-08,  avg # of iterations =  5.0

     negative rho (up, down):  1.315E-02 0.000E+00

     total cpu time spent up to now is        5.6 secs

     total energy              =    -471.55878998 Ry
     estimated scf accuracy    <       0.00000748 Ry

     iteration #  7     ecut=    20.00 Ry     beta= 0.70
     Davidson diagonalization with overlap
     ethr =  1.70E-08,  avg # of iterations =  5.8

     negative rho (up, down):  1.315E-02 0.000E+00

     total cpu time spent up to now is        5.8 secs

     End of self-consistent calculation

          k = 0.0000 0.0000 0.0000 (  5135 PWs)   bands (ev):

   -11.8565 -10.7377  -9.8898  -9.4428  -9.1509  -8.6125  -6.5925  -6.0629
    -5.3814  -3.9058  -3.8117  -3.0815  -2.9207  -2.5024  -2.4154  -2.0277
    -1.4873  -1.3566  -1.1517  -1.1089  -0.4708  -0.1455

          k = 0.0000 0.6667 0.0000 (  5130 PWs)   bands (ev):

   -10.9236  -9.9720  -8.9585  -8.5961  -8.4245  -8.0357  -7.0715  -6.7322
    -6.0895  -5.5242  -5.3626  -4.5409  -3.9669  -3.7182  -3.4455  -2.9533
    -2.4815  -1.9936  -1.7780  -1.6606  -1.0154  -0.7549

          k = 0.3333 0.0000 0.0000 (  5096 PWs)   bands (ev):

   -11.7011 -10.8231 -10.3881  -9.5209  -8.7596  -8.4202  -6.3218  -5.9771
    -5.2486  -4.4082  -3.5689  -3.0009  -2.9855  -2.7539  -2.4678  -2.3235
    -2.2254  -1.4625  -1.4368  -1.0578  -0.3544  -0.0770

          k = 0.3333 0.6667 0.0000 (  5128 PWs)   bands (ev):

   -10.7541  -9.9588  -9.5892  -8.8474  -8.1361  -7.5973  -7.0843  -6.5898
    -6.0251  -5.4341  -5.0689  -4.5572  -4.0320  -3.6533  -3.4596  -3.1624
    -2.5833  -2.3031  -2.1433  -1.8598  -1.6019  -0.6799

     highest occupied level (ev):    -0.0770

!    total energy              =    -471.55879080 Ry

     total all-electron energy =     -5805.017423 Ry
     estimated scf accuracy    <       0.00000066 Ry

     The total energy is the sum of the following terms:
     one-electron contribution =    -373.90000531 Ry
     hartree contribution      =     198.56024518 Ry
     xc contribution           =     -64.09036575 Ry
     ewald contribution        =     123.80256492 Ry
     one-center paw contrib.   =    -355.93122984 Ry

     convergence has been achieved in   7 iterations

     negative rho (up, down):  1.315E-02 0.000E+00

     Forces acting on atoms (cartesian axes, Ry/au):

     atom    1 type  1   force =    -0.09259044    0.00000000    0.02230903
     atom    2 type  1   force =     0.01072227    0.00000000   -0.05542059
     atom    3 type  1   force =     0.04166531    0.00000000   -0.01838955
     atom    4 type  1   force =     0.02434907    0.00000000    0.05048297
     atom    5 type  1   force =     0.02041785    0.00000000   -0.00151040
     atom    6 type  1   force =    -0.01274047    0.00000000    0.01132041
     atom    7 type  1   force =     0.00096025    0.00000000   -0.00170750
     atom    8 type  1   force =     0.00491599    0.00000000    0.00228424
     atom    9 type  1   force =     0.01161452    0.00000000    0.01026480
     atom   10 type  1   force =    -0.01148902    0.00000000    0.01358937
     atom   11 type  2   force =     0.00481911    0.01301364   -0.00854411
     atom   12 type  2   force =     0.00481911   -0.01301364   -0.00854411
     atom   13 type  2   force =    -0.00373177    0.01348175   -0.00806728
     atom   14 type  2   force =    -0.00373177   -0.01348175   -0.00806728

     Total force =     0.134965     Total SCF correction =     0.000996

     number of scf cycles    =   2
     number of bfgs steps    =   1

     energy   old            =    -471.5263941562 Ry
     energy   new            =    -471.5587907953 Ry

     CASE: energy  _new < energy  _old

     new trust radius        =       0.1495935688 bohr
     new conv_thr            =       0.0000009259 Ry


ATOMIC_POSITIONS (angstrom)
Si            1.0768193417        0.0000000000        9.3134267232
Si            6.4787161272        0.0000000000        9.9044730669
Si            1.8784720718        1.9198300000        8.3632184776
Si            5.9152497820        1.9198300000        8.4810661166
Si            3.8583274022        1.9198300000        7.1538120512
Si           -0.0230679985        1.9198300000        6.9147155360
Si            3.8407482137        0.0000000000        5.7416200782
Si            0.0110042040        0.0000000000        5.5993789706
Si            1.9198300000        0.0000000000        4.3212500000    0   0   0
Si            5.7594900000        0.0000000000        4.3212500000    0   0   0
H             1.9198300000       -1.2086295000        3.4670751200    0   0   0
H             1.9198300000        1.2086295000        3.4670751200    0   0   0
H             5.7594900000       -1.2086295000        3.4670751200    0   0   0
H             5.7594900000        1.2086295000        3.4670751200    0   0   0



     Writing output data file ./pwscf.save/
     NEW-OLD atomic charge density approx. for the potential

     Check: negative core charge=   -0.000006

     negative rho (up, down):  1.318E-02 0.000E+00

     total cpu time spent up to now is        5.9 secs

     Self-consistent Calculation

     iteration #  1     ecut=    20.00 Ry     beta= 0.70
     Davidson diagonalization with overlap
     ethr =  1.00E-06,  avg # of iterations = 16.8

     negative rho (up, down):  1.318E-02 0.000E+00

     total cpu time spent up to now is        6.2 secs

     total energy              =    -471.57976943 Ry
     estimated scf accuracy    <       0.00212981 Ry

     iteration #  2     ecut=    20.00 Ry     beta= 0.70
     Davidson diagonalization with overlap
     ethr =  4.84E-06,  avg # of iterations =  5.2

     negative rho (up, down):  1.316E-02 0.000E+00

     total cpu time spent up to now is        6.4 secs

     total energy              =    -471.57977085 Ry
     estimated scf accuracy    <       0.00269656 Ry

     iteration #  3     ecut=    20.00 Ry     beta= 0.70
     Davidson diagonalization with overlap
     ethr =  4.84E-06,  avg # of iterations =  4.8

     negative rho (up, down):  1.316E-02 0.000E+00

     total cpu time spent up to now is        6.5 secs

     total energy              =    -471.58029061 Ry
     estimated scf accuracy    <       0.00049365 Ry

     iteration #  4     ecut=    20.00 Ry     beta= 0.70
     Davidson diagonalization with overlap
     ethr =  1.12E-06,  avg # of iterations =  5.2

     negative rho (up, down):  1.316E-02 0.000E+00

     total cpu time spent up to now is        6.6 secs

     total energy              =    -471.58038604 Ry
     estimated scf accuracy    <       0.00023860 Ry

     iteration #  5     ecut=    20.00 Ry     beta= 0.70
     Davidson diagonalization with overlap
     ethr =  5.42E-07,  avg # of iterations =  3.8

     negative rho (up, down):  1.316E-02 0.000E+00

     total cpu time spent up to now is        6.8 secs

     total energy              =    -471.58042087 Ry
     estimated scf accuracy    <       0.00000830 Ry

     iteration #  6     ecut=    20.00 Ry     beta= 0.70
     Davidson diagonalization with overlap
     ethr =  1.89E-08,  avg # of iterations =  7.2

     negative rho (up, down):  1.316E-02 0.000E+00

     total cpu time spent up to now is        6.9 secs

     total energy              =    -471.58042678 Ry
     estimated scf accuracy    <       0.00001864 Ry

     iteration #  7     ecut=    20.00 Ry     beta= 0.70
     Davidson diagonalization with overlap
     ethr =  1.89E-08,  avg # of iterations =  4.0

     negative rho (up, down):  1.316E-02 0.000E+00

     total cpu time spent up to now is        7.1 secs

     total energy              =    -471.58042636 Ry
     estimated scf accuracy    <       0.00000543 Ry

     iteration #  8     ecut=    20.00 Ry     beta= 0.70
     Davidson diagonalization with overlap
     ethr =  1.23E-08,  avg # of iterations =  5.0

     negative rho (up, down):  1.316E-02 0.000E+00

     total cpu time spent up to now is        7.2 secs

     End of self-consistent calculation

          k = 0.0000 0.0000 0.0000 (  5135 PWs)   bands (ev):

   -11.8125 -10.7034  -9.9004  -9.4567  -9.1347  -8.7294  -6.6661  -6.0609
    -5.3352  -3.9653  -3.8494  -2.9576  -2.8739  -2.4200  -2.3838  -2.0358
    -1.6063  -1.3655  -1.0797  -1.0435  -0.4640  -0.4286

          k = 0.0000 0.6667 0.0000 (  5130 PWs)   bands (ev):

   -10.8839  -9.9450  -8.9824  -8.5937  -8.3578  -8.1956  -7.0535  -6.7417
    -6.0446  -5.5075  -5.3687  -4.5564  -3.9681  -3.6759  -3.5267  -2.9683
    -2.4942  -2.1453  -1.7451  -1.6829  -0.9958  -0.7636

          k = 0.3333 0.0000 0.0000 (  5096 PWs)   bands (ev):

   -11.6403 -10.8127 -10.3924  -9.5582  -8.7342  -8.5157  -6.4019  -5.9973
    -5.2126  -4.4252  -3.5465  -3.0296  -2.8401  -2.7031  -2.3889  -2.3710
    -2.2176  -1.5438  -1.4678  -0.9708  -0.3581  -0.3295

          k = 0.3333 0.6667 0.0000 (  5128 PWs)   bands (ev):

   -10.6981  -9.9394  -9.6068  -8.8808  -8.1489  -7.6434  -7.0704  -6.6139
    -5.9969  -5.4138  -5.0593  -4.5339  -4.0798  -3.6449  -3.4895  -3.1662
    -2.6039  -2.3129  -2.2271  -1.8743  -1.6292  -0.6854

     highest occupied level (ev):    -0.3295

!    total energy              =    -471.58042715 Ry

     total all-electron energy =     -5805.039060 Ry
     estimated scf accuracy    <       0.00000083 Ry

     The total energy is the sum of the following terms:
     one-electron contribution =    -374.62389244 Ry
     hartree contribution      =     198.92023432 Ry
     xc contribution           =     -64.10601463 Ry
     ewald contribution        =     124.15860699 Ry
     one-center paw contrib.   =    -355.92936139 Ry

     convergence has been achieved in   8 iterations

     negative rho (up, down):  1.316E-02 0.000E+00

     Forces acting on atoms (cartesian axes, Ry/au):

     atom    1 type  1   force =    -0.05093481    0.00000000   -0.00690362
     atom    2 type  1   force =    -0.00302364    0.00000000   -0.03465627
     atom    3 type  1   force =     0.00450247    0.00000000    0.00614868
     atom    4 type  1   force =     0.01586456    0.00000000    0.03025407
     atom    5 type  1   force =     0.02933478    0.00000000    0.00028508
     atom    6 type  1   force =    -0.00226170    0.00000000    0.01103038
     atom    7 type  1   force =     0.00254218    0.00000000   -0.00127556
     atom    8 type  1   force =    -0.00153587    0.00000000    0.00456860
     atom    9 type  1   force =     0.01140874    0.00000000    0.01048261
     atom   10 type  1   force =    -0.00784945    0.00000000    0.01363766
     atom   11 type  2   force =     0.00523292    0.01295900   -0.00855323
     atom   12 type  2   force =     0.00523292   -0.01295900   -0.00855323
     atom   13 type  2   force =    -0.00425654    0.01358971   -0.00823259
     atom   14 type  2   force =    -0.00425654   -0.01358971   -0.00823259

     Total force =     0.078077     Total SCF correction =     0.001585

     number of scf cycles    =   3
     number of bfgs steps    =   2

     energy   old            =    -471.5587907953 Ry
     energy   new            =    -471.5804271492 Ry

     CASE: energy  _new < energy  _old

     new trust radius        =       0.1777205452 bohr
     new conv_thr            =       0.0000005093 Ry


ATOMIC_POSITIONS (angstrom)
Si            0.9829737495        0.0000000000        9.3195579095
Si            6.4807989395        0.0000000000        9.8444378442
Si            1.9049512048        1.9198300000        8.3582621478
Si            5.9422238987        1.9198300000        8.5344902795
Si            3.8947236678        1.9198300000        7.1535635166
Si           -0.0318861826        1.9198300000        6.9304154949
Si            3.8437414005        0.0000000000        5.7396251244
Si            0.0124239246        0.0000000000        5.6048288980
Si            1.9198300000        0.0000000000        4.3212500000    0   0   0
Si            5.7594900000        0.0000000000        4.3212500000    0   0   0
H             1.9198300000       -1.2086295000        3.4670751200    0   0   0
H             1.9198300000        1.2086295000        3.4670751200    0   0   0
H             5.7594900000       -1.2086295000        3.4670751200    0   0   0
H             5.7594900000        1.2086295000        3.4670751200    0   0   0



     Writing output data file ./pwscf.save/
     NEW-OLD atomic charge density approx. for the potential

     Check: negative core charge=   -0.000006

     negative rho (up, down):  1.325E-02 0.000E+00

     total cpu time spent up to now is        7.3 secs

     Self-consistent Calculation

     iteration #  1     ecut=    20.00 Ry     beta= 0.70
     Davidson diagonalization with overlap
     ethr =  1.00E-06,  avg # of iterations = 16.8

     negative rho (up, down):  1.326E-02 0.000E+00

     total cpu time spent up to now is        7.7 secs

     total energy              =    -471.58856603 Ry
     estimated scf accuracy    <       0.00422519 Ry

     iteration #  2     ecut=    20.00 Ry     beta= 0.70
     Davidson diagonalization with overlap
     ethr =  9.60E-06,  avg # of iterations =  8.5

     negative rho (up, down):  1.323E-02 0.000E+00

     total cpu time spent up to now is        7.8 secs

     total energy              =    -471.58803324 Ry
     estimated scf accuracy    <       0.01028308 Ry

     iteration #  3     ecut=    20.00 Ry     beta= 0.70
     Davidson diagonalization with overlap
     ethr =  9.60E-06,  avg # of iterations =  8.0

     negative rho (up, down):  1.322E-02 0.000E+00

     total cpu time spent up to now is        8.0 secs

     total energy              =    -471.58984268 Ry
     estimated scf accuracy    <       0.00101809 Ry

     iteration #  4     ecut=    20.00 Ry     beta= 0.70
     Davidson diagonalization with overlap
     ethr =  2.31E-06,  avg # of iterations =  5.2

     negative rho (up, down):  1.322E-02 0.000E+00

     total cpu time spent up to now is        8.1 secs

     total energy              =    -471.59007221 Ry
     estimated scf accuracy    <       0.00028624 Ry

     iteration #  5     ecut=    20.00 Ry     beta= 0.70
     Davidson diagonalization with overlap
     ethr =  6.51E-07,  avg # of iterations =  6.5

     negative rho (up, down):  1.322E-02 0.000E+00

     total cpu time spent up to now is        8.3 secs

     total energy              =    -471.59010518 Ry
     estimated scf accuracy    <       0.00007361 Ry

     iteration #  6     ecut=    20.00 Ry     beta= 0.70
     Davidson diagonalization with overlap
     ethr =  1.67E-07,  avg # of iterations =  6.2

     negative rho (up, down):  1.322E-02 0.000E+00

     total cpu time spent up to now is        8.4 secs

     total energy              =    -471.59012127 Ry
     estimated scf accuracy    <       0.00001633 Ry

     iteration #  7     ecut=    20.00 Ry     beta= 0.70
     Davidson diagonalization with overlap
     ethr =  3.71E-08,  avg # of iterations =  4.5

     negative rho (up, down):  1.322E-02 0.000E+00

     total cpu time spent up to now is        8.5 secs

     total energy              =    -471.59012556 Ry
     estimated scf accuracy    <       0.00000156 Ry

     iteration #  8     ecut=    20.00 Ry     beta= 0.70
     Davidson diagonalization with overlap
     ethr =  3.55E-09,  avg # of iterations =  6.5

     negative rho (up, down):  1.322E-02 0.000E+00

     total cpu time spent up to now is        8.7 secs

     total energy              =    -471.59012578 Ry
     estimated scf accuracy    <       0.00000059 Ry

     iteration #  9     ecut=    20.00 Ry     beta= 0.70
     Davidson diagonalization with overlap
     ethr =  1.34E-09,  avg # of iterations =  3.2

     negative rho (up, down):  1.322E-02 0.000E+00

     total cpu time spent up to now is        8.8 secs

     End of self-consistent calculation

          k = 0.0000 0.0000 0.0000 (  5135 PWs)   bands (ev):

   -11.7958 -10.7246  -9.8793  -9.4636  -9.1820  -8.7741  -6.7185  -6.0639
    -5.2637  -4.0722  -3.8146  -2.9001  -2.8358  -2.4145  -2.3136  -2.0330
    -1.6804  -1.3556  -1.0337  -0.8881  -0.7735  -0.4816

          k = 0.0000 0.6667 0.0000 (  5130 PWs)   bands (ev):

   -10.8631  -9.9565  -8.9899  -8.5892  -8.4144  -8.2566  -7.0460  -6.7359
    -6.0428  -5.4569  -5.3621  -4.5814  -3.9787  -3.6352  -3.6000  -2.9741
    -2.5085  -2.2771  -1.7293  -1.6436  -0.9583  -0.7976

          k = 0.3333 0.0000 0.0000 (  5096 PWs)   bands (ev):

   -11.6198 -10.8224 -10.3990  -9.5948  -8.7380  -8.5583  -6.4676  -6.0002
    -5.1732  -4.4277  -3.5154  -3.0600  -2.7663  -2.6492  -2.4107  -2.3326
    -2.1991  -1.5725  -1.5089  -0.8707  -0.5859  -0.3875

          k = 0.3333 0.6667 0.0000 (  5128 PWs)   bands (ev):

   -10.6733  -9.9455  -9.6131  -8.9177  -8.2158  -7.6636  -7.0677  -6.6157
    -5.9906  -5.3849  -5.0323  -4.5117  -4.1402  -3.6467  -3.5014  -3.1554
    -2.6224  -2.3658  -2.2656  -1.8720  -1.6002  -0.7207

     highest occupied level (ev):    -0.3875

!    total energy              =    -471.59012588 Ry

     total all-electron energy =     -5805.048758 Ry
     estimated scf accuracy    <       0.00000004 Ry

     The total energy is the sum of the following terms:
     one-electron contribution =    -375.97896957 Ry
     hartree contribution      =     199.60105463 Ry
     xc contribution           =     -64.13771220 Ry
     ewald contribution        =     124.85619507 Ry
     one-center paw contrib.   =    -355.93069382 Ry

     convergence has been achieved in   9 iterations

     negative rho (up, down):  1.322E-02 0.000E+00

     Forces acting on atoms (cartesian axes, Ry/au):

     atom    1 type  1   force =     0.01055911    0.00000000   -0.03176348
     atom    2 type  1   force =    -0.02664527    0.00000000   -0.00596649
     atom    3 type  1   force =    -0.02256972    0.00000000    0.02100232
     atom    4 type  1   force =     0.00218447    0.00000000    0.00034427
     atom    5 type  1   force =     0.02523328    0.00000000    0.00629537
     atom    6 type  1   force =     0.00728328    0.00000000    0.00846115
     atom    7 type  1   force =     0.00434360    0.00000000    0.00048443
     atom    8 type  1   force =    -0.00678088    0.00000000    0.00751161
     atom    9 type  1   force =     0.00994963    0.00000000    0.01294812
     atom   10 type  1   force =    -0.00451308    0.00000000    0.01357312
     atom   11 type  2   force =     0.00527780    0.01292830   -0.00820547
     atom   12 type  2   force =     0.00527780   -0.01292830   -0.00820547
     atom   13 type  2   force =    -0.00480000    0.01368695   -0.00823973
     atom   14 type  2   force =    -0.00480000   -0.01368695   -0.00823973

     Total force =     0.061187     Total SCF correction =     0.000239

     number of scf cycles    =   4
     number of bfgs steps    =   3

     energy   old            =    -471.5804271492 Ry
     energy   new            =    -471.5901258811 Ry

     CASE: energy  _new < energy  _old

     new trust radius        =       0.0273476750 bohr
     new conv_thr            =       0.0000003176 Ry


ATOMIC_POSITIONS (angstrom)
Si            0.9812209274        0.0000000000        9.3062640032
Si            6.4682106945        0.0000000000        9.8372986489
Si            1.8977757864        1.9198300000        8.3664622569
Si            5.9451233724        1.9198300000        8.5384411793
Si            3.9081028753        1.9198300000        7.1566934787
Si           -0.0294352268        1.9198300000        6.9353334672
Si            3.8460112885        0.0000000000        5.7397672660
Si            0.0096370187        0.0000000000        5.6087300046
Si            1.9198300000        0.0000000000        4.3212500000    0   0   0
Si            5.7594900000        0.0000000000        4.3212500000    0   0   0
H             1.9198300000       -1.2086295000        3.4670751200    0   0   0
H             1.9198300000        1.2086295000        3.4670751200    0   0   0
H             5.7594900000       -1.2086295000        3.4670751200    0   0   0
H             5.7594900000        1.2086295000        3.4670751200    0   0   0



     Writing output data file ./pwscf.save/
     NEW-OLD atomic charge density approx. for the potential

     Check: negative core charge=   -0.000006

     negative rho (up, down):  1.326E-02 0.000E+00

     total cpu time spent up to now is        8.9 secs

     Self-consistent Calculation

     iteration #  1     ecut=    20.00 Ry     beta= 0.70
     Davidson diagonalization with overlap
     ethr =  1.00E-06,  avg # of iterations =  8.5

     negative rho (up, down):  1.325E-02 0.000E+00

     total cpu time spent up to now is        9.1 secs

     total energy              =    -471.59268155 Ry
     estimated scf accuracy    <       0.00010885 Ry

     iteration #  2     ecut=    20.00 Ry     beta= 0.70
     Davidson diagonalization with overlap
     ethr =  2.47E-07,  avg # of iterations =  4.5

     negative rho (up, down):  1.325E-02 0.000E+00

     total cpu time spent up to now is        9.3 secs

     total energy              =    -471.59268493 Ry
     estimated scf accuracy    <       0.00014312 Ry

     iteration #  3     ecut=    20.00 Ry     beta= 0.70
     Davidson diagonalization with overlap
     ethr =  2.47E-07,  avg # of iterations =  4.0

     negative rho (up, down):  1.325E-02 0.000E+00

     total cpu time spent up to now is        9.4 secs

     total energy              =    -471.59271369 Ry
     estimated scf accuracy    <       0.00002528 Ry

     iteration #  4     ecut=    20.00 Ry     beta= 0.70
     Davidson diagonalization with overlap
     ethr =  5.75E-08,  avg # of iterations =  4.2

     negative rho (up, down):  1.325E-02 0.000E+00

     total cpu time spent up to now is        9.6 secs

     total energy              =    -471.59271809 Ry
     estimated scf accuracy    <       0.00000937 Ry

     iteration #  5     ecut=    20.00 Ry     beta= 0.70
     Davidson diagonalization with overlap
     ethr =  2.13E-08,  avg # of iterations =  5.2

     negative rho (up, down):  1.325E-02 0.000E+00

     total cpu time spent up to now is        9.7 secs

     total energy              =    -471.59271968 Ry
     estimated scf accuracy    <       0.00000077 Ry

     iteration #  6     ecut=    20.00 Ry     beta= 0.70
     Davidson diagonalization with overlap
     ethr =  1.75E-09,  avg # of iterations =  7.2

     negative rho (up, down):  1.325E-02 0.000E+00

     total cpu time spent up to now is        9.9 secs

     End of self-consistent calculation

          k = 0.0000 0.0000 0.0000 (  5135 PWs)   bands (ev):

   -11.8072 -10.7314  -9.8575  -9.4675  -9.2085  -8.7678  -6.6957  -6.0575
    -5.2580  -4.0620  -3.8043  -2.9127  -2.8367  -2.4073  -2.3417  -2.0290
    -1.6593  -1.3338  -1.0400  -0.9191  -0.8123  -0.4812

          k = 0.0000 0.6667 0.0000 (  5130 PWs)   bands (ev):

   -10.8707  -9.9613  -8.9648  -8.5883  -8.4090  -8.2847  -7.0528  -6.7246
    -6.0450  -5.4838  -5.3576  -4.5757  -3.9760  -3.6399  -3.6058  -2.9690
    -2.5177  -2.2610  -1.7250  -1.6442  -0.9565  -0.7988

          k = 0.3333 0.0000 0.0000 (  5096 PWs)   bands (ev):

   -11.6369 -10.8180 -10.3940  -9.6001  -8.7404  -8.5651  -6.4383  -5.9876
    -5.1771  -4.4229  -3.5138  -3.0442  -2.7845  -2.6469  -2.4085  -2.3446
    -2.2060  -1.5501  -1.5062  -0.8791  -0.6277  -0.3900

          k = 0.3333 0.6667 0.0000 (  5128 PWs)   bands (ev):

   -10.6861  -9.9442  -9.6035  -8.9137  -8.2147  -7.6745  -7.0751  -6.6134
    -5.9894  -5.3946  -5.0378  -4.5155  -4.1412  -3.6452  -3.4981  -3.1511
    -2.6198  -2.3677  -2.2561  -1.8636  -1.6086  -0.7238

     highest occupied level (ev):    -0.3900

!    total energy              =    -471.59271987 Ry

     total all-electron energy =     -5805.051352 Ry
     estimated scf accuracy    <       0.00000017 Ry

     The total energy is the sum of the following terms:
     one-electron contribution =    -376.41690990 Ry
     hartree contribution      =     199.82061952 Ry
     xc contribution           =     -64.14209050 Ry
     ewald contribution        =     125.07647560 Ry
     one-center paw contrib.   =    -355.93081458 Ry

     convergence has been achieved in   6 iterations

     negative rho (up, down):  1.325E-02 0.000E+00

     Forces acting on atoms (cartesian axes, Ry/au):

     atom    1 type  1   force =     0.00243049    0.00000000   -0.02597944
     atom    2 type  1   force =    -0.01910424    0.00000000   -0.00417544
     atom    3 type  1   force =    -0.01142975    0.00000000    0.01461922
     atom    4 type  1   force =     0.00021302    0.00000000   -0.00244385
     atom    5 type  1   force =     0.01704725    0.00000000    0.00740386
     atom    6 type  1   force =     0.00582362    0.00000000    0.00678179
     atom    7 type  1   force =     0.00417178    0.00000000    0.00146269
     atom    8 type  1   force =    -0.00475311    0.00000000    0.00677462
     atom    9 type  1   force =     0.00916837    0.00000000    0.01467801
     atom   10 type  1   force =    -0.00469566    0.00000000    0.01355679
     atom   11 type  2   force =     0.00515972    0.01293235   -0.00812146
     atom   12 type  2   force =     0.00515972   -0.01293235   -0.00812146
     atom   13 type  2   force =    -0.00459560    0.01369081   -0.00821767
     atom   14 type  2   force =    -0.00459560   -0.01369081   -0.00821767

     Total force =     0.043897     Total SCF correction =     0.000611

     number of scf cycles    =   5
     number of bfgs steps    =   4

     energy   old            =    -471.5901258811 Ry
     energy   new            =    -471.5927198707 Ry

     CASE: energy  _new < energy  _old

     new trust radius        =       0.0300824425 bohr
     new conv_thr            =       0.0000002594 Ry


ATOMIC_POSITIONS (angstrom)
Si            0.9740591762        0.0000000000        9.2920470392
Si            6.4563483641        0.0000000000        9.8289679368
Si            1.8945006446        1.9198300000        8.3737874527
Si            5.9478180327        1.9198300000        8.5420820797
Si            3.9211119322        1.9198300000        7.1613183061
Si           -0.0270225337        1.9198300000        6.9408202339
Si            3.8488470490        0.0000000000        5.7404917083
Si            0.0071100858        0.0000000000        5.6133671499
Si            1.9198300000        0.0000000000        4.3212500000    0   0   0
Si            5.7594900000        0.0000000000        4.3212500000    0   0   0
H             1.9198300000       -1.2086295000        3.4670751200    0   0   0
H             1.9198300000        1.2086295000        3.4670751200    0   0   0
H             5.7594900000       -1.2086295000        3.4670751200    0   0   0
H             5.7594900000        1.2086295000        3.4670751200    0   0   0



     Writing output data file ./pwscf.save/
     NEW-OLD atomic charge density approx. for the potential

     Check: negative core charge=   -0.000006

     negative rho (up, down):  1.330E-02 0.000E+00

     total cpu time spent up to now is       10.0 secs

     Self-consistent Calculation

     iteration #  1     ecut=    20.00 Ry     beta= 0.70
     Davidson diagonalization with overlap
     ethr =  1.00E-06,  avg # of iterations =  8.5

     negative rho (up, down):  1.329E-02 0.000E+00

     total cpu time spent up to now is       10.2 secs

     total energy              =    -471.59451014 Ry
     estimated scf accuracy    <       0.00009804 Ry

     iteration #  2     ecut=    20.00 Ry     beta= 0.70
     Davidson diagonalization with overlap
     ethr =  2.23E-07,  avg # of iterations =  4.8

     negative rho (up, down):  1.328E-02 0.000E+00

     total cpu time spent up to now is       10.4 secs

     total energy              =    -471.59451693 Ry
     estimated scf accuracy    <       0.00010523 Ry

     iteration #  3     ecut=    20.00 Ry     beta= 0.70
     Davidson diagonalization with overlap
     ethr =  2.23E-07,  avg # of iterations =  3.8

     negative rho (up, down):  1.328E-02 0.000E+00

     total cpu time spent up to now is       10.5 secs

     total energy              =    -471.59453976 Ry
     estimated scf accuracy    <       0.00000984 Ry

     iteration #  4     ecut=    20.00 Ry     beta= 0.70
     Davidson diagonalization with overlap
     ethr =  2.24E-08,  avg # of iterations =  6.0

     negative rho (up, down):  1.328E-02 0.000E+00

     total cpu time spent up to now is       10.7 secs

     total energy              =    -471.59454099 Ry
     estimated scf accuracy    <       0.00001275 Ry

     iteration #  5     ecut=    20.00 Ry     beta= 0.70
     Davidson diagonalization with overlap
     ethr =  2.24E-08,  avg # of iterations =  5.8

     negative rho (up, down):  1.328E-02 0.000E+00

     total cpu time spent up to now is       10.8 secs

     total energy              =    -471.59454294 Ry
     estimated scf accuracy    <       0.00000215 Ry

     iteration #  6     ecut=    20.00 Ry     beta= 0.70
     Davidson diagonalization with overlap
     ethr =  4.89E-09,  avg # of iterations =  4.8

     negative rho (up, down):  1.328E-02 0.000E+00

     total cpu time spent up to now is       10.9 secs

     total energy              =    -471.59454325 Ry
     estimated scf accuracy    <       0.00000027 Ry

     iteration #  7     ecut=    20.00 Ry     beta= 0.70
     Davidson diagonalization with overlap
     ethr =  6.20E-10,  avg # of iterations =  4.2

     negative rho (up, down):  1.328E-02 0.000E+00

     total cpu time spent up to now is       11.1 secs

     End of self-consistent calculation

          k = 0.0000 0.0000 0.0000 (  5135 PWs)   bands (ev):

   -11.8217 -10.7369  -9.8401  -9.4730  -9.2316  -8.7631  -6.6835  -6.0523
    -5.2498  -4.0574  -3.7941  -2.9263  -2.8352  -2.4044  -2.3635  -2.0246
    -1.6449  -1.3132  -1.0456  -0.9539  -0.8400  -0.4847

          k = 0.0000 0.6667 0.0000 (  5130 PWs)   bands (ev):

   -10.8815  -9.9653  -8.9469  -8.5881  -8.4120  -8.3069  -7.0602  -6.7165
    -6.0461  -5.5068  -5.3521  -4.5717  -3.9750  -3.6440  -3.6118  -2.9659
    -2.5250  -2.2520  -1.7219  -1.6421  -0.9553  -0.8028

          k = 0.3333 0.0000 0.0000 (  5096 PWs)   bands (ev):

   -11.6569 -10.8151 -10.3892  -9.6081  -8.7435  -8.5686  -6.4201  -5.9785
    -5.1811  -4.4195  -3.5106  -3.0308  -2.8037  -2.6425  -2.4119  -2.3545
    -2.2074  -1.5319  -1.5082  -0.8846  -0.6620  -0.3971

          k = 0.3333 0.6667 0.0000 (  5128 PWs)   bands (ev):

   -10.7020  -9.9436  -9.5956  -8.9145  -8.2191  -7.6826  -7.0831  -6.6114
    -5.9882  -5.4034  -5.0419  -4.5176  -4.1454  -3.6468  -3.4933  -3.1506
    -2.6181  -2.3701  -2.2495  -1.8552  -1.6135  -0.7298

     highest occupied level (ev):    -0.3971

!    total energy              =    -471.59454330 Ry

     total all-electron energy =     -5805.053176 Ry
     estimated scf accuracy    <       0.00000007 Ry

     The total energy is the sum of the following terms:
     one-electron contribution =    -376.96796394 Ry
     hartree contribution      =     200.09890747 Ry
     xc contribution           =     -64.14765125 Ry
     ewald contribution        =     125.35328120 Ry
     one-center paw contrib.   =    -355.93111677 Ry

     convergence has been achieved in   7 iterations

     negative rho (up, down):  1.328E-02 0.000E+00

     Forces acting on atoms (cartesian axes, Ry/au):

     atom    1 type  1   force =    -0.00145755    0.00000000   -0.02200388
     atom    2 type  1   force =    -0.01415351    0.00000000   -0.00154280
     atom    3 type  1   force =    -0.00412624    0.00000000    0.01022542
     atom    4 type  1   force =    -0.00160958    0.00000000   -0.00510279
     atom    5 type  1   force =     0.01024468    0.00000000    0.00705032
     atom    6 type  1   force =     0.00511652    0.00000000    0.00504904
     atom    7 type  1   force =     0.00367306    0.00000000    0.00252884
     atom    8 type  1   force =    -0.00298302    0.00000000    0.00579751
     atom    9 type  1   force =     0.00849132    0.00000000    0.01667599
     atom   10 type  1   force =    -0.00449102    0.00000000    0.01372194
     atom   11 type  2   force =     0.00506384    0.01293258   -0.00801818
     atom   12 type  2   force =     0.00506384   -0.01293258   -0.00801818
     atom   13 type  2   force =    -0.00441616    0.01368830   -0.00818161
     atom   14 type  2   force =    -0.00441616   -0.01368830   -0.00818161

     Total force =     0.033286     Total SCF correction =     0.000431

     number of scf cycles    =   6
     number of bfgs steps    =   5

     energy   old            =    -471.5927198707 Ry
     energy   new            =    -471.5945432968 Ry

     CASE: energy  _new < energy  _old

     new trust radius        =       0.0451236637 bohr
     new conv_thr            =       0.0000001823 Ry


ATOMIC_POSITIONS (angstrom)
Si            0.9629288694        0.0000000000        9.2709213451
Si            6.4405502380        0.0000000000        9.8196104884
Si            1.8930347943        1.9198300000        8.3832289512
Si            5.9498462684        1.9198300000        8.5440065361
Si            3.9363597030        1.9198300000        7.1685360368
Si           -0.0230929736        1.9198300000        6.9479893899
Si            3.8530010551        0.0000000000        5.7425797296
Si            0.0041464286        0.0000000000        5.6200415250
Si            1.9198300000        0.0000000000        4.3212500000    0   0   0
Si            5.7594900000        0.0000000000        4.3212500000    0   0   0
H             1.9198300000       -1.2086295000        3.4670751200    0   0   0
H             1.9198300000        1.2086295000        3.4670751200    0   0   0
H             5.7594900000       -1.2086295000        3.4670751200    0   0   0
H             5.7594900000        1.2086295000        3.4670751200    0   0   0



     Writing output data file ./pwscf.save/
     NEW-OLD atomic charge density approx. for the potential

     Check: negative core charge=   -0.000006

     negative rho (up, down):  1.335E-02 0.000E+00

     total cpu time spent up to now is       11.2 secs

     Self-consistent Calculation

     iteration #  1     ecut=    20.00 Ry     beta= 0.70
     Davidson diagonalization with overlap
     ethr =  1.00E-06,  avg # of iterations =  9.2

     negative rho (up, down):  1.334E-02 0.000E+00

     total cpu time spent up to now is       11.4 secs

     total energy              =    -471.59626082 Ry
     estimated scf accuracy    <       0.00017826 Ry

     iteration #  2     ecut=    20.00 Ry     beta= 0.70
     Davidson diagonalization with overlap
     ethr =  4.05E-07,  avg # of iterations =  5.5

     negative rho (up, down):  1.334E-02 0.000E+00

     total cpu time spent up to now is       11.6 secs

     total energy              =    -471.59626168 Ry
     estimated scf accuracy    <       0.00026199 Ry

     iteration #  3     ecut=    20.00 Ry     beta= 0.70
     Davidson diagonalization with overlap
     ethr =  4.05E-07,  avg # of iterations =  5.0

     negative rho (up, down):  1.334E-02 0.000E+00

     total cpu time spent up to now is       11.7 secs

     total energy              =    -471.59631460 Ry
     estimated scf accuracy    <       0.00002046 Ry

     iteration #  4     ecut=    20.00 Ry     beta= 0.70
     Davidson diagonalization with overlap
     ethr =  4.65E-08,  avg # of iterations =  5.5

     negative rho (up, down):  1.334E-02 0.000E+00

     total cpu time spent up to now is       11.9 secs

     total energy              =    -471.59631661 Ry
     estimated scf accuracy    <       0.00003068 Ry

     iteration #  5     ecut=    20.00 Ry     beta= 0.70
     Davidson diagonalization with overlap
     ethr =  4.65E-08,  avg # of iterations =  6.0

     negative rho (up, down):  1.334E-02 0.000E+00

     total cpu time spent up to now is       12.0 secs

     total energy              =    -471.59632086 Ry
     estimated scf accuracy    <       0.00000275 Ry

     iteration #  6     ecut=    20.00 Ry     beta= 0.70
     Davidson diagonalization with overlap
     ethr =  6.24E-09,  avg # of iterations =  5.2

     negative rho (up, down):  1.333E-02 0.000E+00

     total cpu time spent up to now is       12.2 secs

     total energy              =    -471.59632152 Ry
     estimated scf accuracy    <       0.00000097 Ry

     iteration #  7     ecut=    20.00 Ry     beta= 0.70
     Davidson diagonalization with overlap
     ethr =  2.20E-09,  avg # of iterations =  5.2

     negative rho (up, down):  1.333E-02 0.000E+00

     total cpu time spent up to now is       12.3 secs

     total energy              =    -471.59632164 Ry
     estimated scf accuracy    <       0.00000019 Ry

     iteration #  8     ecut=    20.00 Ry     beta= 0.70
     Davidson diagonalization with overlap
     ethr =  4.27E-10,  avg # of iterations =  5.5

     negative rho (up, down):  1.333E-02 0.000E+00

     total cpu time spent up to now is       12.5 secs

     End of self-consistent calculation

          k = 0.0000 0.0000 0.0000 (  5135 PWs)   bands (ev):

   -11.8432 -10.7403  -9.8232  -9.4832  -9.2540  -8.7570  -6.6748  -6.0449
    -5.2386  -4.0511  -3.7818  -2.9477  -2.8305  -2.4046  -2.3860  -2.0205
    -1.6289  -1.2903  -1.0532  -1.0049  -0.8551  -0.4906

          k = 0.0000 0.6667 0.0000 (  5130 PWs)   bands (ev):

   -10.8986  -9.9675  -8.9306  -8.5903  -8.4157  -8.3293  -7.0713  -6.7091
    -6.0459  -5.5348  -5.3460  -4.5670  -3.9728  -3.6493  -3.6183  -2.9636
    -2.5317  -2.2401  -1.7189  -1.6385  -0.9545  -0.8076

          k = 0.3333 0.0000 0.0000 (  5096 PWs)   bands (ev):

   -11.6846 -10.8115 -10.3830  -9.6195  -8.7469  -8.5703  -6.4018  -5.9687
    -5.1871  -4.4160  -3.5057  -3.0136  -2.8326  -2.6348  -2.4199  -2.3655
    -2.2064  -1.5151  -1.5093  -0.8910  -0.6922  -0.4079

          k = 0.3333 0.6667 0.0000 (  5128 PWs)   bands (ev):

   -10.7251  -9.9420  -9.5871  -8.9181  -8.2240  -7.6905  -7.0947  -6.6098
    -5.9865  -5.4156  -5.0474  -4.5195  -4.1502  -3.6517  -3.4850  -3.1536
    -2.6159  -2.3699  -2.2425  -1.8427  -1.6179  -0.7373

     highest occupied level (ev):    -0.4079

!    total energy              =    -471.59632164 Ry

     total all-electron energy =     -5805.054954 Ry
     estimated scf accuracy    <       0.00000006 Ry

     The total energy is the sum of the following terms:
     one-electron contribution =    -377.76589655 Ry
     hartree contribution      =     200.49769058 Ry
     xc contribution           =     -64.15446471 Ry
     ewald contribution        =     125.75783249 Ry
     one-center paw contrib.   =    -355.93148345 Ry

     convergence has been achieved in   8 iterations

     negative rho (up, down):  1.333E-02 0.000E+00

     Forces acting on atoms (cartesian axes, Ry/au):

     atom    1 type  1   force =    -0.00585074    0.00000000   -0.01711596
     atom    2 type  1   force =    -0.00876548    0.00000000    0.00135639
     atom    3 type  1   force =     0.00319759    0.00000000    0.00570853
     atom    4 type  1   force =    -0.00307111    0.00000000   -0.00711750
     atom    5 type  1   force =     0.00276083    0.00000000    0.00515506
     atom    6 type  1   force =     0.00435643    0.00000000    0.00291645
     atom    7 type  1   force =     0.00271709    0.00000000    0.00349232
     atom    8 type  1   force =    -0.00077138    0.00000000    0.00410251
     atom    9 type  1   force =     0.00788413    0.00000000    0.01941320
     atom   10 type  1   force =    -0.00405846    0.00000000    0.01420075
     atom   11 type  2   force =     0.00496925    0.01293987   -0.00791725
     atom   12 type  2   force =     0.00496925   -0.01293987   -0.00791725
     atom   13 type  2   force =    -0.00416869    0.01369077   -0.00813863
     atom   14 type  2   force =    -0.00416869   -0.01369077   -0.00813863

     Total force =     0.024646     Total SCF correction =     0.000306

     number of scf cycles    =   7
     number of bfgs steps    =   6

     energy   old            =    -471.5945432968 Ry
     energy   new            =    -471.5963216399 Ry

     CASE: energy  _new < energy  _old

     new trust radius        =       0.0676854956 bohr
     new conv_thr            =       0.0000001712 Ry


ATOMIC_POSITIONS (angstrom)
Si            0.9450194999        0.0000000000        9.2399026972
Si            6.4193635950        0.0000000000        9.8093667718
Si            1.8949387978        1.9198300000        8.3956306960
Si            5.9508723632        1.9198300000        8.5433323856
Si            3.9538222687        1.9198300000        7.1783882987
Si           -0.0168002464        1.9198300000        6.9572487691
Si            3.8587649095        0.0000000000        5.7468507019
Si            0.0010417969        0.0000000000        5.6291741466
Si            1.9198300000        0.0000000000        4.3212500000    0   0   0
Si            5.7594900000        0.0000000000        4.3212500000    0   0   0
H             1.9198300000       -1.2086295000        3.4670751200    0   0   0
H             1.9198300000        1.2086295000        3.4670751200    0   0   0
H             5.7594900000       -1.2086295000        3.4670751200    0   0   0
H             5.7594900000        1.2086295000        3.4670751200    0   0   0



     Writing output data file ./pwscf.save/
     NEW-OLD atomic charge density approx. for the potential

     Check: negative core charge=   -0.000006

     negative rho (up, down):  1.343E-02 0.000E+00

     total cpu time spent up to now is       12.6 secs

     Self-consistent Calculation

     iteration #  1     ecut=    20.00 Ry     beta= 0.70
     Davidson diagonalization with overlap
     ethr =  1.00E-06,  avg # of iterations = 12.0

     negative rho (up, down):  1.341E-02 0.000E+00

     total cpu time spent up to now is       12.8 secs

     total energy              =    -471.59776640 Ry
     estimated scf accuracy    <       0.00037487 Ry

     iteration #  2     ecut=    20.00 Ry     beta= 0.70
     Davidson diagonalization with overlap
     ethr =  8.52E-07,  avg # of iterations =  7.8

     negative rho (up, down):  1.341E-02 0.000E+00

     total cpu time spent up to now is       13.0 secs

     total energy              =    -471.59771296 Ry
     estimated scf accuracy    <       0.00102116 Ry

     iteration #  3     ecut=    20.00 Ry     beta= 0.70
     Davidson diagonalization with overlap
     ethr =  8.52E-07,  avg # of iterations =  8.0

     negative rho (up, down):  1.340E-02 0.000E+00

     total cpu time spent up to now is       13.2 secs

     total energy              =    -471.59788510 Ry
     estimated scf accuracy    <       0.00007398 Ry

     iteration #  4     ecut=    20.00 Ry     beta= 0.70
     Davidson diagonalization with overlap
     ethr =  1.68E-07,  avg # of iterations =  7.2

     negative rho (up, down):  1.340E-02 0.000E+00

     total cpu time spent up to now is       13.3 secs

     total energy              =    -471.59789875 Ry
     estimated scf accuracy    <       0.00006771 Ry

     iteration #  5     ecut=    20.00 Ry     beta= 0.70
     Davidson diagonalization with overlap
     ethr =  1.54E-07,  avg # of iterations =  4.5

     negative rho (up, down):  1.340E-02 0.000E+00

     total cpu time spent up to now is       13.5 secs

     total energy              =    -471.59790762 Ry
     estimated scf accuracy    <       0.00000835 Ry

     iteration #  6     ecut=    20.00 Ry     beta= 0.70
     Davidson diagonalization with overlap
     ethr =  1.90E-08,  avg # of iterations =  5.2

     negative rho (up, down):  1.340E-02 0.000E+00

     total cpu time spent up to now is       13.6 secs

     total energy              =    -471.59790947 Ry
     estimated scf accuracy    <       0.00000197 Ry

     iteration #  7     ecut=    20.00 Ry     beta= 0.70
     Davidson diagonalization with overlap
     ethr =  4.49E-09,  avg # of iterations =  3.8

     negative rho (up, down):  1.340E-02 0.000E+00

     total cpu time spent up to now is       13.7 secs

     total energy              =    -471.59790988 Ry
     estimated scf accuracy    <       0.00000024 Ry

     iteration #  8     ecut=    20.00 Ry     beta= 0.70
     Davidson diagonalization with overlap
     ethr =  5.37E-10,  avg # of iterations =  5.0

     negative rho (up, down):  1.340E-02 0.000E+00

     total cpu time spent up to now is       13.9 secs

     End of self-consistent calculation

          k = 0.0000 0.0000 0.0000 (  5135 PWs)   bands (ev):

   -11.8753 -10.7405  -9.8115  -9.4994  -9.2726  -8.7493  -6.6723  -6.0355
    -5.2228  -4.0439  -3.7663  -2.9810  -2.8204  -2.4119  -2.4066  -2.0160
    -1.6128  -1.2705  -1.0630  -1.0621  -0.8628  -0.5023

          k = 0.0000 0.6667 0.0000 (  5130 PWs)   bands (ev):

   -10.9257  -9.9666  -8.9210  -8.5969  -8.4220  -8.3472  -7.0877  -6.7040
    -6.0439  -5.5681  -5.3384  -4.5621  -3.9704  -3.6565  -3.6261  -2.9630
    -2.5365  -2.2277  -1.7176  -1.6321  -0.9528  -0.8158

          k = 0.3333 0.0000 0.0000 (  5096 PWs)   bands (ev):

   -11.7240 -10.8084 -10.3757  -9.6340  -8.7510  -8.5695  -6.3859  -5.9584
    -5.1954  -4.4132  -3.4991  -2.9930  -2.8750  -2.6216  -2.4342  -2.3751
    -2.2027  -1.5302  -1.4815  -0.8983  -0.7158  -0.4267

          k = 0.3333 0.6667 0.0000 (  5128 PWs)   bands (ev):

   -10.7590  -9.9398  -9.5790  -8.9244  -8.2309  -7.6985  -7.1111  -6.6098
    -5.9839  -5.4314  -5.0540  -4.5211  -4.1571  -3.6626  -3.4723  -3.1624
    -2.6133  -2.3665  -2.2351  -1.8257  -1.6196  -0.7493

     highest occupied level (ev):    -0.4267

!    total energy              =    -471.59790990 Ry

     total all-electron energy =     -5805.056542 Ry
     estimated scf accuracy    <       0.00000007 Ry

     The total energy is the sum of the following terms:
     one-electron contribution =    -378.90869409 Ry
     hartree contribution      =     201.06726879 Ry
     xc contribution           =     -64.16278610 Ry
     ewald contribution        =     126.33818445 Ry
     one-center paw contrib.   =    -355.93188295 Ry

     convergence has been achieved in   8 iterations

     negative rho (up, down):  1.340E-02 0.000E+00

     Forces acting on atoms (cartesian axes, Ry/au):

     atom    1 type  1   force =    -0.01026828    0.00000000   -0.01121754
     atom    2 type  1   force =    -0.00334293    0.00000000    0.00443385
     atom    3 type  1   force =     0.00975249    0.00000000    0.00134585
     atom    4 type  1   force =    -0.00388864    0.00000000   -0.00815803
     atom    5 type  1   force =    -0.00524269    0.00000000    0.00145847
     atom    6 type  1   force =     0.00363580    0.00000000    0.00034555
     atom    7 type  1   force =     0.00117859    0.00000000    0.00394627
     atom    8 type  1   force =     0.00170995    0.00000000    0.00155060
     atom    9 type  1   force =     0.00758505    0.00000000    0.02299148
     atom   10 type  1   force =    -0.00328423    0.00000000    0.01516697
     atom   11 type  2   force =     0.00490602    0.01295212   -0.00782655
     atom   12 type  2   force =     0.00490602   -0.01295212   -0.00782655
     atom   13 type  2   force =    -0.00382357    0.01369928   -0.00810519
     atom   14 type  2   force =    -0.00382357   -0.01369928   -0.00810519

     Total force =     0.022493     Total SCF correction =     0.000447

     number of scf cycles    =   8
     number of bfgs steps    =   7

     energy   old            =    -471.5963216399 Ry
     energy   new            =    -471.5979099041 Ry

     CASE: energy  _new < energy  _old

     new trust radius        =       0.0978612995 bohr
     new conv_thr            =       0.0000001122 Ry


ATOMIC_POSITIONS (angstrom)
Si            0.9169283009        0.0000000000        9.1963978564
Si            6.3919874869        0.0000000000        9.8001078806
Si            1.9029410082        1.9198300000        8.4114255766
Si            5.9500860098        1.9198300000        8.5381071981
Si            3.9709506212        1.9198300000        7.1895443912
Si           -0.0069262140        1.9198300000        6.9681835451
Si            3.8659300181        0.0000000000        5.7542411542
Si           -0.0012740033        0.0000000000        5.6403903344
Si            1.9198300000        0.0000000000        4.3212500000    0   0   0
Si            5.7594900000        0.0000000000        4.3212500000    0   0   0
H             1.9198300000       -1.2086295000        3.4670751200    0   0   0
H             1.9198300000        1.2086295000        3.4670751200    0   0   0
H             5.7594900000       -1.2086295000        3.4670751200    0   0   0
H             5.7594900000        1.2086295000        3.4670751200    0   0   0



     Writing output data file ./pwscf.save/
     NEW-OLD atomic charge density approx. for the potential

     Check: negative core charge=   -0.000006

     negative rho (up, down):  1.350E-02 0.000E+00

     total cpu time spent up to now is       14.0 secs

     Self-consistent Calculation

     iteration #  1     ecut=    20.00 Ry     beta= 0.70
     Davidson diagonalization with overlap
     ethr =  1.00E-06,  avg # of iterations = 13.5

     negative rho (up, down):  1.349E-02 0.000E+00

     total cpu time spent up to now is       14.3 secs

     total energy              =    -471.59892949 Ry
     estimated scf accuracy    <       0.00059861 Ry

     iteration #  2     ecut=    20.00 Ry     beta= 0.70
     Davidson diagonalization with overlap
     ethr =  1.36E-06,  avg # of iterations =  8.0

     negative rho (up, down):  1.348E-02 0.000E+00

     total cpu time spent up to now is       14.4 secs

     total energy              =    -471.59883992 Ry
     estimated scf accuracy    <       0.00164292 Ry

     iteration #  3     ecut=    20.00 Ry     beta= 0.70
     Davidson diagonalization with overlap
     ethr =  1.36E-06,  avg # of iterations =  7.8

     negative rho (up, down):  1.348E-02 0.000E+00

     total cpu time spent up to now is       14.6 secs

     total energy              =    -471.59911987 Ry
     estimated scf accuracy    <       0.00010785 Ry

     iteration #  4     ecut=    20.00 Ry     beta= 0.70
     Davidson diagonalization with overlap
     ethr =  2.45E-07,  avg # of iterations =  7.8

     negative rho (up, down):  1.348E-02 0.000E+00

     total cpu time spent up to now is       14.7 secs

     total energy              =    -471.59913623 Ry
     estimated scf accuracy    <       0.00011935 Ry

     iteration #  5     ecut=    20.00 Ry     beta= 0.70
     Davidson diagonalization with overlap
     ethr =  2.45E-07,  avg # of iterations =  5.0

     negative rho (up, down):  1.348E-02 0.000E+00

     total cpu time spent up to now is       14.9 secs

     total energy              =    -471.59915111 Ry
     estimated scf accuracy    <       0.00001221 Ry

     iteration #  6     ecut=    20.00 Ry     beta= 0.70
     Davidson diagonalization with overlap
     ethr =  2.78E-08,  avg # of iterations =  5.8

     negative rho (up, down):  1.348E-02 0.000E+00

     total cpu time spent up to now is       15.0 secs

     total energy              =    -471.59915439 Ry
     estimated scf accuracy    <       0.00000402 Ry

     iteration #  7     ecut=    20.00 Ry     beta= 0.70
     Davidson diagonalization with overlap
     ethr =  9.14E-09,  avg # of iterations =  4.0

     negative rho (up, down):  1.348E-02 0.000E+00

     total cpu time spent up to now is       15.2 secs

     total energy              =    -471.59915501 Ry
     estimated scf accuracy    <       0.00000069 Ry

     iteration #  8     ecut=    20.00 Ry     beta= 0.70
     Davidson diagonalization with overlap
     ethr =  1.58E-09,  avg # of iterations =  4.5

     negative rho (up, down):  1.348E-02 0.000E+00

     total cpu time spent up to now is       15.3 secs

     total energy              =    -471.59915510 Ry
     estimated scf accuracy    <       0.00000027 Ry

     iteration #  9     ecut=    20.00 Ry     beta= 0.70
     Davidson diagonalization with overlap
     ethr =  6.20E-10,  avg # of iterations =  6.8

     negative rho (up, down):  1.348E-02 0.000E+00

     total cpu time spent up to now is       15.4 secs

     End of self-consistent calculation

          k = 0.0000 0.0000 0.0000 (  5135 PWs)   bands (ev):

   -11.9194 -10.7367  -9.8140  -9.5183  -9.2832  -8.7397  -6.6802  -6.0253
    -5.2007  -4.0369  -3.7477  -3.0264  -2.8017  -2.4323  -2.4214  -2.0131
    -1.5997  -1.2672  -1.1060  -1.0704  -0.8656  -0.5213

          k = 0.0000 0.6667 0.0000 (  5130 PWs)   bands (ev):

   -10.9641  -9.9616  -8.9276  -8.6094  -8.4282  -8.3542  -7.1109  -6.7054
    -6.0402  -5.6010  -5.3310  -4.5579  -3.9689  -3.6659  -3.6351  -2.9669
    -2.5356  -2.2185  -1.7208  -1.6195  -0.9488  -0.8290

          k = 0.3333 0.0000 0.0000 (  5096 PWs)   bands (ev):

   -11.7751 -10.8083 -10.3689  -9.6488  -8.7570  -8.5650  -6.3762  -5.9496
    -5.2048  -4.4124  -3.4916  -2.9711  -2.9291  -2.6020  -2.4539  -2.3815
    -2.1985  -1.5531  -1.4486  -0.9047  -0.7281  -0.4562

          k = 0.3333 0.6667 0.0000 (  5128 PWs)   bands (ev):

   -10.8042  -9.9386  -9.5741  -8.9323  -8.2391  -7.7060  -7.1337  -6.6136
    -5.9810  -5.4488  -5.0623  -4.5222  -4.1659  -3.6816  -3.4562  -3.1804
    -2.6112  -2.3589  -2.2272  -1.8047  -1.6136  -0.7675

     highest occupied level (ev):    -0.4562

!    total energy              =    -471.59915513 Ry

     total all-electron energy =     -5805.057788 Ry
     estimated scf accuracy    <       0.00000002 Ry

     The total energy is the sum of the following terms:
     one-electron contribution =    -380.44369022 Ry
     hartree contribution      =     201.83315221 Ry
     xc contribution           =     -64.17153386 Ry
     ewald contribution        =     127.11494005 Ry
     one-center paw contrib.   =    -355.93202331 Ry

     convergence has been achieved in   9 iterations

     negative rho (up, down):  1.348E-02 0.000E+00

     Forces acting on atoms (cartesian axes, Ry/au):

     atom    1 type  1   force =    -0.01327351    0.00000000   -0.00480298
     atom    2 type  1   force =     0.00139340    0.00000000    0.00693503
     atom    3 type  1   force =     0.01324152    0.00000000   -0.00182187
     atom    4 type  1   force =    -0.00355076    0.00000000   -0.00744273
     atom    5 type  1   force =    -0.01254886    0.00000000   -0.00395180
     atom    6 type  1   force =     0.00303824    0.00000000   -0.00245467
     atom    7 type  1   force =    -0.00112815    0.00000000    0.00305630
     atom    8 type  1   force =     0.00395969    0.00000000   -0.00184596
     atom    9 type  1   force =     0.00799046    0.00000000    0.02716747
     atom   10 type  1   force =    -0.00210365    0.00000000    0.01684574
     atom   11 type  2   force =     0.00487147    0.01296673   -0.00777717
     atom   12 type  2   force =     0.00487147   -0.01296673   -0.00777717
     atom   13 type  2   force =    -0.00338066    0.01370437   -0.00806510
     atom   14 type  2   force =    -0.00338066   -0.01370437   -0.00806510

     Total force =     0.026721     Total SCF correction =     0.000234

     number of scf cycles    =   9
     number of bfgs steps    =   8

     energy   old            =    -471.5979099041 Ry
     energy   new            =    -471.5991551280 Ry

     CASE: energy  _new < energy  _old

     new trust radius        =       0.0736515832 bohr
     new conv_thr            =       0.0000001245 Ry


ATOMIC_POSITIONS (angstrom)
Si            0.8937329186        0.0000000000        9.1650768642
Si            6.3743115076        0.0000000000        9.7988147178
Si            1.9130607854        1.9198300000        8.4218123220
Si            5.9477304545        1.9198300000        8.5305400191
Si            3.9752538611        1.9198300000        7.1934843279
Si            0.0015577555        1.9198300000        6.9736161751
Si            3.8695548576        0.0000000000        5.7602864920
Si           -0.0007394340        0.0000000000        5.6461476819
Si            1.9198300000        0.0000000000        4.3212500000    0   0   0
Si            5.7594900000        0.0000000000        4.3212500000    0   0   0
H             1.9198300000       -1.2086295000        3.4670751200    0   0   0
H             1.9198300000        1.2086295000        3.4670751200    0   0   0
H             5.7594900000       -1.2086295000        3.4670751200    0   0   0
H             5.7594900000        1.2086295000        3.4670751200    0   0   0



     Writing output data file ./pwscf.save/
     NEW-OLD atomic charge density approx. for the potential

     Check: negative core charge=   -0.000006

     negative rho (up, down):  1.351E-02 0.000E+00

     total cpu time spent up to now is       15.6 secs

     Self-consistent Calculation

     iteration #  1     ecut=    20.00 Ry     beta= 0.70
     Davidson diagonalization with overlap
     ethr =  1.00E-06,  avg # of iterations = 11.0

     negative rho (up, down):  1.351E-02 0.000E+00

     total cpu time spent up to now is       15.8 secs

     total energy              =    -471.59990776 Ry
     estimated scf accuracy    <       0.00023619 Ry

     iteration #  2     ecut=    20.00 Ry     beta= 0.70
     Davidson diagonalization with overlap
     ethr =  5.37E-07,  avg # of iterations =  8.0

     negative rho (up, down):  1.351E-02 0.000E+00

     total cpu time spent up to now is       16.0 secs

     total energy              =    -471.59986700 Ry
     estimated scf accuracy    <       0.00061936 Ry

     iteration #  3     ecut=    20.00 Ry     beta= 0.70
     Davidson diagonalization with overlap
     ethr =  5.37E-07,  avg # of iterations =  7.8

     negative rho (up, down):  1.351E-02 0.000E+00

     total cpu time spent up to now is       16.2 secs

     total energy              =    -471.59997118 Ry
     estimated scf accuracy    <       0.00006146 Ry

     iteration #  4     ecut=    20.00 Ry     beta= 0.70
     Davidson diagonalization with overlap
     ethr =  1.40E-07,  avg # of iterations =  7.8

     negative rho (up, down):  1.351E-02 0.000E+00

     total cpu time spent up to now is       16.3 secs

     total energy              =    -471.59998076 Ry
     estimated scf accuracy    <       0.00006737 Ry

     iteration #  5     ecut=    20.00 Ry     beta= 0.70
     Davidson diagonalization with overlap
     ethr =  1.40E-07,  avg # of iterations =  4.2

     negative rho (up, down):  1.351E-02 0.000E+00

     total cpu time spent up to now is       16.4 secs

     total energy              =    -471.59998854 Ry
     estimated scf accuracy    <       0.00000672 Ry

     iteration #  6     ecut=    20.00 Ry     beta= 0.70
     Davidson diagonalization with overlap
     ethr =  1.53E-08,  avg # of iterations =  4.8

     negative rho (up, down):  1.351E-02 0.000E+00

     total cpu time spent up to now is       16.6 secs

     total energy              =    -471.59999023 Ry
     estimated scf accuracy    <       0.00000060 Ry

     iteration #  7     ecut=    20.00 Ry     beta= 0.70
     Davidson diagonalization with overlap
     ethr =  1.35E-09,  avg # of iterations =  5.8

     negative rho (up, down):  1.351E-02 0.000E+00

     total cpu time spent up to now is       16.7 secs

     total energy              =    -471.59999046 Ry
     estimated scf accuracy    <       0.00000030 Ry

     iteration #  8     ecut=    20.00 Ry     beta= 0.70
     Davidson diagonalization with overlap
[...]

   -10.8937 -10.0240  -9.6180  -8.9664  -8.2318  -7.7336  -7.1813  -6.6711
    -5.9946  -5.4654  -5.1049  -4.5176  -4.2028  -3.7494  -3.4595  -3.2499
    -2.6573  -2.3485  -2.2678  -1.7907  -1.5241  -0.8113

     highest occupied level (ev):    -0.5269

!    total energy              =    -471.60328348 Ry

     total all-electron energy =     -5805.061916 Ry
     estimated scf accuracy    <          7.5E-09 Ry

     The total energy is the sum of the following terms:
     one-electron contribution =    -387.31304598 Ry
     hartree contribution      =     205.24602906 Ry
     xc contribution           =     -64.20829008 Ry
     ewald contribution        =     130.60604798 Ry
     one-center paw contrib.   =    -355.93402446 Ry

     convergence has been achieved in   7 iterations

     negative rho (up, down):  1.363E-02 0.000E+00

     Forces acting on atoms (cartesian axes, Ry/au):

     atom    1 type  1   force =    -0.00019278    0.00000000   -0.00065062
     atom    2 type  1   force =    -0.00018710    0.00000000    0.00006651
     atom    3 type  1   force =    -0.00144920    0.00000000    0.00088331
     atom    4 type  1   force =     0.00036495    0.00000000    0.00011560
     atom    5 type  1   force =     0.00036932    0.00000000    0.00123581
     atom    6 type  1   force =    -0.00082076    0.00000000   -0.00052519
     atom    7 type  1   force =    -0.00017662    0.00000000   -0.00003871
     atom    8 type  1   force =    -0.00098879    0.00000000    0.00017272
     atom    9 type  1   force =     0.00567635    0.00000000    0.01716973
     atom   10 type  1   force =    -0.00240108    0.00000000    0.01443213
     atom   11 type  2   force =     0.00350187    0.01290716   -0.00826967
     atom   12 type  2   force =     0.00350187   -0.01290716   -0.00826967
     atom   13 type  2   force =    -0.00359901    0.01379380   -0.00816097
     atom   14 type  2   force =    -0.00359901   -0.01379380   -0.00816097

     Total force =     0.002680     Total SCF correction =     0.000150

     number of scf cycles    =  24
     number of bfgs steps    =  23

     energy   old            =    -471.6032651565 Ry
     energy   new            =    -471.6032834786 Ry

     CASE: energy  _new < energy  _old

     new trust radius        =       0.0069108700 bohr
     new conv_thr            =       0.0000000100 Ry


ATOMIC_POSITIONS (angstrom)
Si            0.7885298230        0.0000000000        9.0476225292
Si            6.2961047232        0.0000000000        9.7649782071
Si            1.8920428644        1.9198300000        8.4132024714
Si            5.8660019487        1.9198300000        8.4629822571
Si            3.8907036988        1.9198300000        7.1232250132
Si           -0.0196998444        1.9198300000        6.9532536555
Si            3.8425441193        0.0000000000        5.7248145012
Si            0.0047198469        0.0000000000        5.6316910610
Si            1.9198300000        0.0000000000        4.3212500000    0   0   0
Si            5.7594900000        0.0000000000        4.3212500000    0   0   0
H             1.9198300000       -1.2086295000        3.4670751200    0   0   0
H             1.9198300000        1.2086295000        3.4670751200    0   0   0
H             5.7594900000       -1.2086295000        3.4670751200    0   0   0
H             5.7594900000        1.2086295000        3.4670751200    0   0   0



     Writing output data file ./pwscf.save/
     NEW-OLD atomic charge density approx. for the potential

     Check: negative core charge=   -0.000006

     negative rho (up, down):  1.363E-02 0.000E+00

     total cpu time spent up to now is       36.4 secs

     Self-consistent Calculation

     iteration #  1     ecut=    20.00 Ry     beta= 0.70
     Davidson diagonalization with overlap
     ethr =  1.00E-06,  avg # of iterations =  2.8

     Threshold (ethr) on eigenvalues was too large:
     Diagonalizing with lowered threshold

     Davidson diagonalization with overlap
     ethr =  1.13E-08,  avg # of iterations =  7.5

     negative rho (up, down):  1.363E-02 0.000E+00

     total cpu time spent up to now is       36.7 secs

     total energy              =    -471.60329512 Ry
     estimated scf accuracy    <       0.00000500 Ry

     iteration #  2     ecut=    20.00 Ry     beta= 0.70
     Davidson diagonalization with overlap
     ethr =  1.14E-08,  avg # of iterations =  5.2

     negative rho (up, down):  1.363E-02 0.000E+00

     total cpu time spent up to now is       36.9 secs

     total energy              =    -471.60329465 Ry
     estimated scf accuracy    <       0.00000583 Ry

     iteration #  3     ecut=    20.00 Ry     beta= 0.70
     Davidson diagonalization with overlap
     ethr =  1.14E-08,  avg # of iterations =  4.8

     negative rho (up, down):  1.363E-02 0.000E+00

     total cpu time spent up to now is       37.0 secs

     total energy              =    -471.60329583 Ry
     estimated scf accuracy    <       0.00000247 Ry

     iteration #  4     ecut=    20.00 Ry     beta= 0.70
     Davidson diagonalization with overlap
     ethr =  5.62E-09,  avg # of iterations =  5.2

     negative rho (up, down):  1.363E-02 0.000E+00

     total cpu time spent up to now is       37.2 secs

     total energy              =    -471.60329611 Ry
     estimated scf accuracy    <       0.00000075 Ry

     iteration #  5     ecut=    20.00 Ry     beta= 0.70
     Davidson diagonalization with overlap
     ethr =  1.70E-09,  avg # of iterations =  6.8

     negative rho (up, down):  1.363E-02 0.000E+00

     total cpu time spent up to now is       37.3 secs

     total energy              =    -471.60329627 Ry
     estimated scf accuracy    <       0.00000009 Ry

     iteration #  6     ecut=    20.00 Ry     beta= 0.70
     Davidson diagonalization with overlap
     ethr =  2.15E-10,  avg # of iterations =  5.0

     negative rho (up, down):  1.363E-02 0.000E+00

     total cpu time spent up to now is       37.4 secs

     total energy              =    -471.60329629 Ry
     estimated scf accuracy    <       0.00000002 Ry

     iteration #  7     ecut=    20.00 Ry     beta= 0.70
     Davidson diagonalization with overlap
     ethr =  4.48E-11,  avg # of iterations =  5.5

     negative rho (up, down):  1.363E-02 0.000E+00

     total cpu time spent up to now is       37.6 secs

     End of self-consistent calculation

          k = 0.0000 0.0000 0.0000 (  5135 PWs)   bands (ev):

   -12.0200 -10.7944  -9.9158  -9.5358  -9.2948  -8.7026  -6.7560  -6.0094
    -5.1603  -4.0539  -3.7434  -3.1235  -2.7013  -2.5566  -2.4564  -2.0357
    -1.6474  -1.4106  -1.1286  -1.0255  -0.8545  -0.5539

          k = 0.0000 0.6667 0.0000 (  5130 PWs)   bands (ev):

   -11.0564 -10.0162  -9.0432  -8.6412  -8.4638  -8.3033  -7.1603  -6.7940
    -6.0647  -5.5984  -5.3616  -4.5526  -4.0172  -3.6744  -3.6635  -3.0246
    -2.4874  -2.2660  -1.7628  -1.5391  -1.0171  -0.8672

          k = 0.3333 0.0000 0.0000 (  5096 PWs)   bands (ev):

   -11.8769 -10.9011 -10.3992  -9.6676  -8.7920  -8.5366  -6.3750  -5.9753
    -5.2100  -4.4433  -3.5479  -3.0267  -3.0119  -2.5974  -2.4327  -2.4314
    -2.2283  -1.5906  -1.4186  -0.8916  -0.7322  -0.5287

          k = 0.3333 0.6667 0.0000 (  5128 PWs)   bands (ev):

   -10.8972 -10.0227  -9.6199  -8.9671  -8.2337  -7.7339  -7.1824  -6.6705
    -5.9964  -5.4666  -5.1054  -4.5175  -4.2033  -3.7503  -3.4582  -3.2510
    -2.6565  -2.3489  -2.2677  -1.7910  -1.5234  -0.8121

     highest occupied level (ev):    -0.5287

!    total energy              =    -471.60329629 Ry

     total all-electron energy =     -5805.061929 Ry
     estimated scf accuracy    <          5.5E-09 Ry

     The total energy is the sum of the following terms:
     one-electron contribution =    -387.43430711 Ry
     hartree contribution      =     205.30677602 Ry
     xc contribution           =     -64.21000475 Ry
     ewald contribution        =     130.66845478 Ry
     one-center paw contrib.   =    -355.93421522 Ry

     convergence has been achieved in   7 iterations

     negative rho (up, down):  1.363E-02 0.000E+00

     Forces acting on atoms (cartesian axes, Ry/au):

     atom    1 type  1   force =    -0.00043903    0.00000000   -0.00012762
     atom    2 type  1   force =    -0.00018962    0.00000000    0.00042161
     atom    3 type  1   force =    -0.00061410    0.00000000    0.00058108
     atom    4 type  1   force =     0.00036942    0.00000000   -0.00030612
     atom    5 type  1   force =     0.00017569    0.00000000    0.00066428
     atom    6 type  1   force =    -0.00096121    0.00000000   -0.00043530
     atom    7 type  1   force =     0.00017148    0.00000000   -0.00009606
     atom    8 type  1   force =    -0.00128318    0.00000000    0.00055475
     atom    9 type  1   force =     0.00592769    0.00000000    0.01704793
     atom   10 type  1   force =    -0.00286821    0.00000000    0.01457570
     atom   11 type  2   force =     0.00350276    0.01290377   -0.00827065
     atom   12 type  2   force =     0.00350276   -0.01290377   -0.00827065
     atom   13 type  2   force =    -0.00364722    0.01379218   -0.00816948
     atom   14 type  2   force =    -0.00364722   -0.01379218   -0.00816948

     Total force =     0.002224     Total SCF correction =     0.000132

     number of scf cycles    =  25
     number of bfgs steps    =  24

     energy   old            =    -471.6032834786 Ry
     energy   new            =    -471.6032962872 Ry

     CASE: energy  _new < energy  _old

     new trust radius        =       0.0087518763 bohr
     new conv_thr            =       0.0000000100 Ry


ATOMIC_POSITIONS (angstrom)
Si            0.7854261348        0.0000000000        9.0441850885
Si            6.2941413788        0.0000000000        9.7632982151
Si            1.8892554009        1.9198300000        8.4137221615
Si            5.8643242748        1.9198300000        8.4624059383
Si            3.8891369824        1.9198300000        7.1245252978
Si           -0.0217198279        1.9198300000        6.9522139694
Si            3.8419509583        0.0000000000        5.7252560671
Si            0.0038732211        0.0000000000        5.6313432904
Si            1.9198300000        0.0000000000        4.3212500000    0   0   0
Si            5.7594900000        0.0000000000        4.3212500000    0   0   0
H             1.9198300000       -1.2086295000        3.4670751200    0   0   0
H             1.9198300000        1.2086295000        3.4670751200    0   0   0
H             5.7594900000       -1.2086295000        3.4670751200    0   0   0
H             5.7594900000        1.2086295000        3.4670751200    0   0   0



     Writing output data file ./pwscf.save/
     NEW-OLD atomic charge density approx. for the potential

     Check: negative core charge=   -0.000006

     negative rho (up, down):  1.363E-02 0.000E+00

     total cpu time spent up to now is       37.7 secs

     Self-consistent Calculation

     iteration #  1     ecut=    20.00 Ry     beta= 0.70
     Davidson diagonalization with overlap
     ethr =  1.00E-06,  avg # of iterations =  3.0

     Threshold (ethr) on eigenvalues was too large:
     Diagonalizing with lowered threshold

     Davidson diagonalization with overlap
     ethr =  1.03E-08,  avg # of iterations =  8.2

     negative rho (up, down):  1.363E-02 0.000E+00

     total cpu time spent up to now is       38.0 secs

     total energy              =    -471.60330306 Ry
     estimated scf accuracy    <       0.00000503 Ry

     iteration #  2     ecut=    20.00 Ry     beta= 0.70
     Davidson diagonalization with overlap
     ethr =  1.14E-08,  avg # of iterations =  4.8

     negative rho (up, down):  1.363E-02 0.000E+00

     total cpu time spent up to now is       38.2 secs

     total energy              =    -471.60330289 Ry
     estimated scf accuracy    <       0.00000418 Ry

     iteration #  3     ecut=    20.00 Ry     beta= 0.70
     Davidson diagonalization with overlap
     ethr =  9.50E-09,  avg # of iterations =  3.8

     negative rho (up, down):  1.363E-02 0.000E+00

     total cpu time spent up to now is       38.3 secs

     total energy              =    -471.60330385 Ry
     estimated scf accuracy    <       0.00000139 Ry

     iteration #  4     ecut=    20.00 Ry     beta= 0.70
     Davidson diagonalization with overlap
     ethr =  3.17E-09,  avg # of iterations =  4.5

     negative rho (up, down):  1.363E-02 0.000E+00

     total cpu time spent up to now is       38.4 secs

     total energy              =    -471.60330401 Ry
     estimated scf accuracy    <       0.00000047 Ry

     iteration #  5     ecut=    20.00 Ry     beta= 0.70
     Davidson diagonalization with overlap
     ethr =  1.08E-09,  avg # of iterations =  5.2

     negative rho (up, down):  1.363E-02 0.000E+00

     total cpu time spent up to now is       38.6 secs

     total energy              =    -471.60330411 Ry
     estimated scf accuracy    <       0.00000007 Ry

     iteration #  6     ecut=    20.00 Ry     beta= 0.70
     Davidson diagonalization with overlap
     ethr =  1.64E-10,  avg # of iterations =  4.8

     negative rho (up, down):  1.363E-02 0.000E+00

     total cpu time spent up to now is       38.7 secs

     End of self-consistent calculation

          k = 0.0000 0.0000 0.0000 (  5135 PWs)   bands (ev):

   -12.0237 -10.7949  -9.9161  -9.5374  -9.2958  -8.7027  -6.7559  -6.0097
    -5.1583  -4.0531  -3.7425  -3.1281  -2.7000  -2.5580  -2.4580  -2.0357
    -1.6461  -1.4090  -1.1305  -1.0296  -0.8566  -0.5548

          k = 0.0000 0.6667 0.0000 (  5130 PWs)   bands (ev):

   -11.0597 -10.0168  -9.0432  -8.6425  -8.4656  -8.3042  -7.1622  -6.7937
    -6.0658  -5.6003  -5.3616  -4.5522  -4.0168  -3.6764  -3.6634  -3.0252
    -2.4870  -2.2650  -1.7636  -1.5380  -1.0180  -0.8685

          k = 0.3333 0.0000 0.0000 (  5096 PWs)   bands (ev):

   -11.8813 -10.9003 -10.4006  -9.6687  -8.7926  -8.5365  -6.3746  -5.9751
    -5.2097  -4.4442  -3.5473  -3.0322  -3.0110  -2.5977  -2.4329  -2.4302
    -2.2287  -1.5909  -1.4164  -0.8947  -0.7331  -0.5313

          k = 0.3333 0.6667 0.0000 (  5128 PWs)   bands (ev):

   -10.9011 -10.0222  -9.6210  -8.9677  -8.2358  -7.7342  -7.1842  -6.6700
    -5.9980  -5.4676  -5.1062  -4.5177  -4.2037  -3.7519  -3.4572  -3.2524
    -2.6564  -2.3487  -2.2675  -1.7903  -1.5228  -0.8135

     highest occupied level (ev):    -0.5313

!    total energy              =    -471.60330412 Ry

     total all-electron energy =     -5805.061937 Ry
     estimated scf accuracy    <          8.9E-09 Ry

     The total energy is the sum of the following terms:
     one-electron contribution =    -387.60014519 Ry
     hartree contribution      =     205.38951081 Ry
     xc contribution           =     -64.21169073 Ry
     ewald contribution        =     130.75341046 Ry
     one-center paw contrib.   =    -355.93438948 Ry

     convergence has been achieved in   6 iterations

     negative rho (up, down):  1.363E-02 0.000E+00

     Forces acting on atoms (cartesian axes, Ry/au):

     atom    1 type  1   force =    -0.00059288    0.00000000    0.00034160
     atom    2 type  1   force =    -0.00012437    0.00000000    0.00064906
     atom    3 type  1   force =    -0.00000253    0.00000000    0.00020589
     atom    4 type  1   force =     0.00023457    0.00000000   -0.00032738
     atom    5 type  1   force =    -0.00016979    0.00000000    0.00016394
     atom    6 type  1   force =    -0.00076850    0.00000000   -0.00024408
     atom    7 type  1   force =     0.00029320    0.00000000    0.00002524
     atom    8 type  1   force =    -0.00096214    0.00000000    0.00046535
     atom    9 type  1   force =     0.00579689    0.00000000    0.01713202
     atom   10 type  1   force =    -0.00329851    0.00000000    0.01450486
     atom   11 type  2   force =     0.00346911    0.01290518   -0.00827329
     atom   12 type  2   force =     0.00346911   -0.01290518   -0.00827329
     atom   13 type  2   force =    -0.00367208    0.01378848   -0.00818496
     atom   14 type  2   force =    -0.00367208   -0.01378848   -0.00818496

     Total force =     0.001745     Total SCF correction =     0.000162

     bfgs converged in  26 scf cycles and  25 bfgs steps
     (criteria: energy <  1.0E-04 Ry, force <  1.0E-03 Ry/Bohr)

     End of BFGS Geometry Optimization

     Final energy   =    -471.6033041243 Ry

     File ./pwscf.bfgs deleted, as requested
Begin final coordinates

ATOMIC_POSITIONS (angstrom)
Si            0.7854261348        0.0000000000        9.0441850885
Si            6.2941413788        0.0000000000        9.7632982151
Si            1.8892554009        1.9198300000        8.4137221615
Si            5.8643242748        1.9198300000        8.4624059383
Si            3.8891369824        1.9198300000        7.1245252978
Si           -0.0217198279        1.9198300000        6.9522139694
Si            3.8419509583        0.0000000000        5.7252560671
Si            0.0038732211        0.0000000000        5.6313432904
Si            1.9198300000        0.0000000000        4.3212500000    0   0   0
Si            5.7594900000        0.0000000000        4.3212500000    0   0   0
H             1.9198300000       -1.2086295000        3.4670751200    0   0   0
H             1.9198300000        1.2086295000        3.4670751200    0   0   0
H             5.7594900000       -1.2086295000        3.4670751200    0   0   0
H             5.7594900000        1.2086295000        3.4670751200    0   0   0
End final coordinates



     Writing output data file ./pwscf.save/
 
     init_run     :      0.82s CPU      0.75s WALL (       1 calls)
     electrons    :    129.60s CPU     33.95s WALL (      26 calls)
     update_pot   :      3.79s CPU      0.99s WALL (      25 calls)
     forces       :      1.85s CPU      0.48s WALL (      26 calls)

     Called by init_run:
     wfcinit      :      0.30s CPU      0.21s WALL (       1 calls)
     potinit      :      0.27s CPU      0.10s WALL (       1 calls)
     hinit0       :      0.17s CPU      0.27s WALL (       1 calls)

     Called by electrons:
     c_bands      :     84.23s CPU     22.13s WALL (     225 calls)
     sum_band     :     11.60s CPU      2.98s WALL (     225 calls)
     v_of_rho     :      1.47s CPU      0.39s WALL (     241 calls)
     newd         :      2.26s CPU      0.70s WALL (     241 calls)
     PAW_pot      :     34.09s CPU      8.79s WALL (     266 calls)
     mix_rho      :      0.50s CPU      0.13s WALL (     225 calls)

     Called by c_bands:
     init_us_2    :      0.70s CPU      0.15s WALL (    2008 calls)
     cegterg      :     77.06s CPU     19.99s WALL (     900 calls)

     Called by *egterg:
     cdiaghg      :     11.47s CPU      3.23s WALL (    5881 calls)
     h_psi        :     56.51s CPU     14.53s WALL (    6025 calls)
     s_psi        :      2.81s CPU      0.72s WALL (    6025 calls)
     g_psi        :      0.03s CPU      0.01s WALL (    5121 calls)

     Called by h_psi:
     h_psi:calbec :      5.56s CPU      1.39s WALL (    6025 calls)
     vloc_psi     :     48.04s CPU     12.37s WALL (    6025 calls)
     add_vuspsi   :      2.84s CPU      0.73s WALL (    6025 calls)

     General routines
     calbec       :      7.86s CPU      1.97s WALL (    7441 calls)
     fft          :      1.85s CPU      0.56s WALL (    2972 calls)
     ffts         :      0.15s CPU      0.03s WALL (     225 calls)
     fftw         :     54.93s CPU     13.81s WALL (  149108 calls)
 
     Parallel routines
     fft_scatt_xy :      0.61s CPU      0.57s WALL (  152305 calls)
     fft_scatt_yz :     37.30s CPU      8.23s WALL (  152305 calls)
 
     PWSCF        :   2m22.42s CPU     38.85s WALL

 
   This run was terminated on:   1:42:25  12Oct2021            

=------------------------------------------------------------------------------=
   JOB DONE.
=------------------------------------------------------------------------------=
